                         Program Version 4.2.0 -  RELEASE  -
|  1> ! ri-mp2 cc-pvtz cc-pvtz/c TightSCF  NoKeepInts
|  2>
|  3> %scf
|  4>   MaxCore 4096
|  5> end
|  6> *xyz  0  1
|  7>     C       15.5562594   14.1137830   14.6049657
|  8>     C       15.0382262   14.8310442   15.8675563
|  9>     O       15.9422576   15.8987238   16.2091070
| 10>     C       17.0920206   15.6324453   16.8985025
| 11>     O       17.4948229   14.4954725   17.0842611
| 12>     C       17.6490583   16.8088975   17.6491400
| 13>     C       17.3645586   18.1109935   17.3822178
| 14>     C       16.4653464   18.6681812   16.2974706
| 15>     N       17.9965152   19.1232729   18.1123763
| 16>     C       19.0222074   18.9272076   18.9989269
| 17>     S       19.8055320   20.1929391   19.7200409
| 18>     N       19.3659390   17.6245753   19.2562224
| 19>     C       18.6148945   16.4465188   18.7835735
| 20>     C       17.8762389   15.7841245   19.9438941
| 21>     C       18.0666190   14.4179542   20.2222994
| 22>     C       17.3882692   13.8021344   21.2874467
| 23>     C       16.5107463   14.5582642   22.0829317
| 24>     C       16.3151788   15.9182929   21.8069837
| 25>     O       15.4638265   16.6497806   22.5695775
| 26>     C       16.9914012   16.5283023   20.7458019
| 27>     H       15.6924165   14.8264721   13.7823511
| 28>     H       14.8414779   13.3480744   14.2802791
| 29>     H       16.5161277   13.6182648   14.7965938
| 30>     H       14.0473753   15.2518761   15.6540819
| 31>     H       14.9350483   14.1220550   16.7007650
| 32>     H       16.7055139   18.2219168   15.3243769
| 33>     H       16.5615663   19.7547862   16.1840839
| 34>     H       15.4127715   18.4514651   16.5185678
| 35>     H       17.7582687   20.0863646   17.9374148
| 36>     H       20.1039128   17.5052742   19.9381724
| 37>     H       19.3444742   15.7266652   18.3851717
| 38>     H       18.7315322   13.8267982   19.5972541
| 39>     H       17.5399221   12.7430783   21.4878834
| 40>     H       15.9834403   14.0862533   22.9051404
| 41>     H       15.1253304   16.0668839   23.2655414
| 42>     H       16.8279037   17.5828641   20.5530262
| 43> *
| 44>
| 45>                          ****END OF INPUT****

CARTESIAN COORDINATES (ANGSTROEM)
---------------------------------
  C     15.556259   14.113783   14.604966
  C     15.038226   14.831044   15.867556
  O     15.942258   15.898724   16.209107
  C     17.092021   15.632445   16.898502
  O     17.494823   14.495472   17.084261
  C     17.649058   16.808898   17.649140
  C     17.364559   18.110993   17.382218
  C     16.465346   18.668181   16.297471
  N     17.996515   19.123273   18.112376
  C     19.022207   18.927208   18.998927
  S     19.805532   20.192939   19.720041
  N     19.365939   17.624575   19.256222
  C     18.614894   16.446519   18.783573
  C     17.876239   15.784125   19.943894
  C     18.066619   14.417954   20.222299
  C     17.388269   13.802134   21.287447
  C     16.510746   14.558264   22.082932
  C     16.315179   15.918293   21.806984
  O     15.463826   16.649781   22.569578
  C     16.991401   16.528302   20.745802
  H     15.692417   14.826472   13.782351
  H     14.841478   13.348074   14.280279
  H     16.516128   13.618265   14.796594
  H     14.047375   15.251876   15.654082
  H     14.935048   14.122055   16.700765
  H     16.705514   18.221917   15.324377
  H     16.561566   19.754786   16.184084
  H     15.412771   18.451465   16.518568
  H     17.758269   20.086365   17.937415
  H     20.103913   17.505274   19.938172
  H     19.344474   15.726665   18.385172
  H     18.731532   13.826798   19.597254
  H     17.539922   12.743078   21.487883
  H     15.983440   14.086253   22.905140
  H     15.125330   16.066884   23.265541
  H     16.827904   17.582864   20.553026

 Total Charge           Charge          ....    0
 Multiplicity           Mult            ....    1
 Number of Electrons    NEL             ....  154
 Basis Dimension        Dim             ....  828

ORBITAL ENERGIES
----------------

  NO   OCC          E(Eh)            E(eV)
   0   2.0000     -91.887905     -2500.3970
   1   2.0000     -20.602645      -560.6265
   2   2.0000     -20.591290      -560.3175
   3   2.0000     -20.546973      -559.1116
   4   2.0000     -15.628157      -425.2638
   5   2.0000     -15.606585      -424.6768
   6   2.0000     -11.397080      -310.1303
   7   2.0000     -11.382805      -309.7419
   8   2.0000     -11.335895      -308.4654
   9   2.0000     -11.307138      -307.6829
  10   2.0000     -11.305584      -307.6406
  11   2.0000     -11.301162      -307.5203
  12   2.0000     -11.260534      -306.4147
  13   2.0000     -11.258729      -306.3656
  14   2.0000     -11.253143      -306.2136
  15   2.0000     -11.247334      -306.0555
  16   2.0000     -11.236954      -305.7731
  17   2.0000     -11.233049      -305.6668
  18   2.0000     -11.230111      -305.5869
  19   2.0000     -11.225060      -305.4494
  20   2.0000      -8.892970      -241.9900
  21   2.0000      -6.574548      -178.9025
  22   2.0000      -6.572541      -178.8479
  23   2.0000      -6.571955      -178.8320
  24   2.0000      -1.453867       -39.5617
  25   2.0000      -1.411023       -38.3959
  26   2.0000      -1.357827       -36.9484
  27   2.0000      -1.339151       -36.4402
  28   2.0000      -1.236782       -33.6545
  29   2.0000      -1.151812       -31.3424
  30   2.0000      -1.119368       -30.4595
  31   2.0000      -1.041984       -28.3538
  32   2.0000      -1.034212       -28.1423
  33   2.0000      -1.009131       -27.4599
  34   2.0000      -0.996937       -27.1280
  35   2.0000      -0.982446       -26.7337
  36   2.0000      -0.921092       -25.0642
  37   2.0000      -0.892409       -24.2837
  38   2.0000      -0.847516       -23.0621
  39   2.0000      -0.835242       -22.7281
  40   2.0000      -0.827550       -22.5188
  41   2.0000      -0.817912       -22.2565
  42   2.0000      -0.753868       -20.5138
  43   2.0000      -0.734426       -19.9848
  44   2.0000      -0.724700       -19.7201
  45   2.0000      -0.690521       -18.7900
  46   2.0000      -0.685055       -18.6413
  47   2.0000      -0.679907       -18.5012
  48   2.0000      -0.671219       -18.2648
  49   2.0000      -0.659675       -17.9507
  50   2.0000      -0.646140       -17.5824
  51   2.0000      -0.641403       -17.4535
  52   2.0000      -0.630352       -17.1528
  53   2.0000      -0.611372       -16.6363
  54   2.0000      -0.599847       -16.3227
  55   2.0000      -0.599199       -16.3050
  56   2.0000      -0.594483       -16.1767
  57   2.0000      -0.585448       -15.9309
  58   2.0000      -0.572751       -15.5853
  59   2.0000      -0.566204       -15.4072
  60   2.0000      -0.560326       -15.2472
  61   2.0000      -0.545786       -14.8516
  62   2.0000      -0.535151       -14.5622
  63   2.0000      -0.524329       -14.2677
  64   2.0000      -0.516750       -14.0615
  65   2.0000      -0.510394       -13.8885
  66   2.0000      -0.500600       -13.6220
  67   2.0000      -0.495229       -13.4759
  68   2.0000      -0.479967       -13.0606
  69   2.0000      -0.462171       -12.5763
  70   2.0000      -0.456865       -12.4319
  71   2.0000      -0.454932       -12.3793
  72   2.0000      -0.353993        -9.6326
  73   2.0000      -0.343663        -9.3515
  74   2.0000      -0.327031        -8.8990
  75   2.0000      -0.315408        -8.5827
  76   2.0000      -0.313499        -8.5307
  77   0.0000       0.076150         2.0722
  78   0.0000       0.113458         3.0873
  79   0.0000       0.121613         3.3092
  80   0.0000       0.136238         3.7072
  81   0.0000       0.141003         3.8369

MULLIKEN ATOMIC CHARGES
-----------------------
   0 C :   -0.294005
   1 C :    0.038581
   2 O :   -0.346847
   3 C :    0.438112
   4 O :   -0.433553
   5 C :   -0.157367
   6 C :    0.143820
   7 C :   -0.284955
   8 N :   -0.121423
   9 C :    0.201354
  10 S :   -0.439539
  11 N :   -0.196515
  12 C :    0.034201
  13 C :    0.056708
  14 C :   -0.161309
  15 C :   -0.134173
  16 C :   -0.278963
  17 C :    0.311532
  18 O :   -0.359032
  19 C :   -0.271215
  20 H :    0.090226
  21 H :    0.094718
  22 H :    0.119171
  23 H :    0.104756
  24 H :    0.102225
  25 H :    0.125262
  26 H :    0.101682
  27 H :    0.128543
  28 H :    0.196746
  29 H :    0.193410
  30 H :    0.153399
  31 H :    0.153211
  32 H :    0.158932
  33 H :    0.127922
  34 H :    0.239961
  35 H :    0.164422
Sum of atomic charges:   -0.0000000

LOEWDIN ATOMIC CHARGES
----------------------
   0 C :    0.104392
   1 C :   -0.015568
   2 O :    0.303792
   3 C :   -0.412549
   4 O :    0.105679
   5 C :   -0.090406
   6 C :   -0.066189
   7 C :    0.124993
   8 N :    0.404746
   9 C :   -0.458897
  10 S :   -0.036169
  11 N :    0.397802
  12 C :   -0.046264
  13 C :   -0.038821
  14 C :    0.021764
  15 C :    0.040666
  16 C :   -0.002328
  17 C :   -0.192471
  18 O :    0.393051
  19 C :    0.028764
  20 H :   -0.030810
  21 H :   -0.027552
  22 H :   -0.024662
  23 H :   -0.025968
  24 H :   -0.026507
  25 H :   -0.009001
  26 H :   -0.020976
  27 H :   -0.009341
  28 H :   -0.059146
  29 H :   -0.063696
  30 H :   -0.005110
  31 H :   -0.025451
  32 H :   -0.021320
  33 H :   -0.036444
  34 H :   -0.154962
  35 H :   -0.025041

  Mayer bond orders larger than 0.100000
B(  0-C ,  1-C ) :   0.9667 B(  0-C , 20-H ) :   0.9769 B(  0-C , 21-H ) :   0.9768
B(  0-C , 22-H ) :   0.9735 B(  1-C ,  2-O ) :   0.9011 B(  1-C , 23-H ) :   0.9848
B(  1-C , 24-H ) :   0.9760 B(  2-O ,  3-C ) :   1.1480 B(  3-C ,  4-O ) :   1.9556
B(  3-C ,  5-C ) :   1.0643 B(  5-C ,  6-C ) :   1.6480 B(  5-C , 12-C ) :   0.9652
B(  6-C ,  7-C ) :   0.9550 B(  6-C ,  8-N ) :   1.1475 B(  7-C , 25-H ) :   0.9664
B(  7-C , 26-H ) :   0.9912 B(  7-C , 27-H ) :   0.9631 B(  8-N ,  9-C ) :   1.1787
B(  8-N , 28-H ) :   0.9489 B(  9-C , 10-S ) :   1.6106 B(  9-C , 11-N ) :   1.3038
B( 11-N , 12-C ) :   0.9935 B( 11-N , 29-H ) :   0.9519 B( 12-C , 13-C ) :   0.9471
B( 12-C , 30-H ) :   0.9998 B( 13-C , 14-C ) :   1.3751 B( 13-C , 19-C ) :   1.3701
B( 14-C , 15-C ) :   1.3945 B( 14-C , 31-H ) :   0.9652 B( 15-C , 16-C ) :   1.3626
B( 15-C , 32-H ) :   0.9715 B( 16-C , 17-C ) :   1.3314 B( 16-C , 33-H ) :   0.9860
B( 17-C , 18-O ) :   1.1080 B( 17-C , 19-C ) :   1.3791 B( 18-O , 34-H ) :   0.9807
B( 19-C , 35-H ) :   0.9584

MP2 TOTAL ENERGY:    -1274.345760835 Eh
FINAL SINGLE POINT ENERGY     -1274.345760834696

DIPOLE MOMENT
-------------
                                X             Y             Z
Electronic contribution:     10.13886       9.56541      11.65339
Nuclear contribution   :    -11.82590     -10.68825     -12.51216
                        -----------------------------------------
Total Dipole Moment    :     -1.68704      -1.12284      -0.85877
                        -----------------------------------------
Magnitude (a.u.)       :      2.20099
Magnitude (Debye)      :      5.59447

Rotational constants in cm-1:     0.010574     0.008849     0.005786
Rotational constants in MHz :   317.014306   265.281001   173.454696

                             ****ORCA TERMINATED NORMALLY****
TOTAL RUN TIME: 0 days 1 hours 39 minutes 11 seconds 241 msec
