                         Program Version 5.0.0 -  RELEASE  -
|  1> ! ri-mp2 cc-pvtz cc-pvtz/c TightSCF NoKeepInts
|  2>
|  3> %scf
|  4>   MaxCore 4096
|  5> end
|  6> *xyz  0  1
|  7>     C       15.7235939   14.5529780   14.1364329
|  8>     C       15.1799762   14.7209002   15.5659971
|  9>     O       15.9253842   15.7784216   16.1973509
| 10>     C       16.9370749   15.4830198   17.0660351
| 11>     O       17.2984602   14.3380268   17.2851659
| 12>     C       17.5664571   16.6699923   17.7420730
| 13>     C       17.3336258   17.9733793   17.4304238
| 14>     C       16.4125837   18.5365053   16.3669780
| 15>     N       18.0394347   18.9822020   18.0953725
| 16>     C       19.0844550   18.7733080   18.9557839
| 17>     S       19.9545057   20.0276863   19.5923636
| 18>     N       19.3705995   17.4675792   19.2615020
| 19>     C       18.5442294   16.3113781   18.8680079
| 20>     C       17.8065252   15.7456255   20.0790173
| 21>     C       17.9292075   14.3847898   20.4155821
| 22>     C       17.2519010   13.8575413   21.5278762
| 23>     C       16.4437851   14.6977811   22.3124119
| 24>     C       16.3157536   16.0529177   21.9788778
| 25>     O       15.5314713   16.8656776   22.7310378
| 26>     C       16.9907547   16.5746951   20.8708827
| 27>     H       15.6530039   15.4955883   13.5797563
| 28>     H       15.1518520   13.7894127   13.5951672
| 29>     H       16.7751234   14.2398075   14.1592404
| 30>     H       14.1225108   15.0092569   15.5096072
| 31>     H       15.2418087   13.7762025   16.1236486
| 32>     H       16.6600475   18.1246292   15.3806421
| 33>     H       16.4747136   19.6283850   16.2854261
| 34>     H       15.3675474   18.2852438   16.5873250
| 35>     H       17.8444114   19.9477385   17.8843589
| 36>     H       20.1246544   17.3400895   19.9240949
| 37>     H       19.2236037   15.5352425   18.4867958
| 38>     H       18.5399592   13.7288761   19.7999063
| 39>     H       17.3503775   12.8016497   21.7731598
| 40>     H       15.9173527   14.2942903   23.1708603
| 41>     H       15.1799593   16.3340240   23.4607611
| 42>     H       16.8802957   17.6271584   20.6340774
| 43> *
| 44>
| 45>                          ****END OF INPUT****

CARTESIAN COORDINATES (ANGSTROEM)
---------------------------------
  C     15.723594   14.552978   14.136433
  C     15.179976   14.720900   15.565997
  O     15.925384   15.778422   16.197351
  C     16.937075   15.483020   17.066035
  O     17.298460   14.338027   17.285166
  C     17.566457   16.669992   17.742073
  C     17.333626   17.973379   17.430424
  C     16.412584   18.536505   16.366978
  N     18.039435   18.982202   18.095372
  C     19.084455   18.773308   18.955784
  S     19.954506   20.027686   19.592364
  N     19.370599   17.467579   19.261502
  C     18.544229   16.311378   18.868008
  C     17.806525   15.745625   20.079017
  C     17.929208   14.384790   20.415582
  C     17.251901   13.857541   21.527876
  C     16.443785   14.697781   22.312412
  C     16.315754   16.052918   21.978878
  O     15.531471   16.865678   22.731038
  C     16.990755   16.574695   20.870883
  H     15.653004   15.495588   13.579756
  H     15.151852   13.789413   13.595167
  H     16.775123   14.239807   14.159240
  H     14.122511   15.009257   15.509607
  H     15.241809   13.776203   16.123649
  H     16.660048   18.124629   15.380642
  H     16.474714   19.628385   16.285426
  H     15.367547   18.285244   16.587325
  H     17.844411   19.947738   17.884359
  H     20.124654   17.340090   19.924095
  H     19.223604   15.535243   18.486796
  H     18.539959   13.728876   19.799906
  H     17.350377   12.801650   21.773160
  H     15.917353   14.294290   23.170860
  H     15.179959   16.334024   23.460761
  H     16.880296   17.627158   20.634077

 Total Charge           Charge          ....    0
 Multiplicity           Mult            ....    1
 Number of Electrons    NEL             ....  154
 Basis Dimension        Dim             ....  828

ORBITAL ENERGIES
----------------

  NO   OCC          E(Eh)            E(eV)
   0   2.0000     -91.888087     -2500.4020
   1   2.0000     -20.605155      -560.6948
   2   2.0000     -20.590560      -560.2976
   3   2.0000     -20.544545      -559.0455
   4   2.0000     -15.628696      -425.2785
   5   2.0000     -15.606481      -424.6740
   6   2.0000     -11.396894      -310.1253
   7   2.0000     -11.382782      -309.7413
   8   2.0000     -11.337485      -308.5086
   9   2.0000     -11.306324      -307.6607
  10   2.0000     -11.304812      -307.6196
  11   2.0000     -11.299590      -307.4775
  12   2.0000     -11.261048      -306.4287
  13   2.0000     -11.258994      -306.3728
  14   2.0000     -11.252357      -306.1922
  15   2.0000     -11.246429      -306.0309
  16   2.0000     -11.236113      -305.7502
  17   2.0000     -11.232330      -305.6472
  18   2.0000     -11.230706      -305.6031
  19   2.0000     -11.229182      -305.5616
  20   2.0000      -8.893145      -241.9948
  21   2.0000      -6.574722      -178.9073
  22   2.0000      -6.572716      -178.8527
  23   2.0000      -6.572130      -178.8367
  24   2.0000      -1.454370       -39.5754
  25   2.0000      -1.410291       -38.3760
  26   2.0000      -1.357391       -36.9365
  27   2.0000      -1.339535       -36.4506
  28   2.0000      -1.236931       -33.6586
  29   2.0000      -1.151144       -31.3242
  30   2.0000      -1.119099       -30.4522
  31   2.0000      -1.043123       -28.3848
  32   2.0000      -1.035873       -28.1875
  33   2.0000      -1.008465       -27.4417
  34   2.0000      -0.997227       -27.1359
  35   2.0000      -0.982794       -26.7432
  36   2.0000      -0.920769       -25.0554
  37   2.0000      -0.892757       -24.2932
  38   2.0000      -0.847483       -23.0612
  39   2.0000      -0.834468       -22.7070
  40   2.0000      -0.826712       -22.4960
  41   2.0000      -0.816487       -22.2177
  42   2.0000      -0.759185       -20.6585
  43   2.0000      -0.735799       -20.0221
  44   2.0000      -0.724133       -19.7047
  45   2.0000      -0.689725       -18.7684
  46   2.0000      -0.684641       -18.6300
  47   2.0000      -0.679866       -18.5001
  48   2.0000      -0.672334       -18.2951
  49   2.0000      -0.655132       -17.8271
  50   2.0000      -0.648856       -17.6563
  51   2.0000      -0.642130       -17.4732
  52   2.0000      -0.630201       -17.1486
  53   2.0000      -0.612120       -16.6566
  54   2.0000      -0.599826       -16.3221
  55   2.0000      -0.598481       -16.2855
  56   2.0000      -0.593861       -16.1598
  57   2.0000      -0.584075       -15.8935
  58   2.0000      -0.572061       -15.5666
  59   2.0000      -0.564157       -15.3515
  60   2.0000      -0.561079       -15.2677
  61   2.0000      -0.545067       -14.8320
  62   2.0000      -0.537486       -14.6257
  63   2.0000      -0.532150       -14.4805
  64   2.0000      -0.516235       -14.0475
  65   2.0000      -0.509332       -13.8596
  66   2.0000      -0.499743       -13.5987
  67   2.0000      -0.494756       -13.4630
  68   2.0000      -0.480377       -13.0717
  69   2.0000      -0.464168       -12.6307
  70   2.0000      -0.456626       -12.4254
  71   2.0000      -0.454697       -12.3729
  72   2.0000      -0.354425        -9.6444
  73   2.0000      -0.343087        -9.3359
  74   2.0000      -0.327143        -8.9020
  75   2.0000      -0.315414        -8.5829
  76   2.0000      -0.312653        -8.5077
  77   0.0000       0.075905         2.0655
  78   0.0000       0.114767         3.1230
  79   0.0000       0.121289         3.3005
  80   0.0000       0.136659         3.7187
  81   0.0000       0.140376         3.8198

MULLIKEN ATOMIC CHARGES
-----------------------
   0 C :   -0.281021
   1 C :    0.023795
   2 O :   -0.343101
   3 C :    0.460336
   4 O :   -0.438937
   5 C :   -0.186040
   6 C :    0.145317
   7 C :   -0.284230
   8 N :   -0.119628
   9 C :    0.200554
  10 S :   -0.438830
  11 N :   -0.196199
  12 C :    0.031873
  13 C :    0.059397
  14 C :   -0.160051
  15 C :   -0.133857
  16 C :   -0.278497
  17 C :    0.311728
  18 O :   -0.359297
  19 C :   -0.272584
  20 H :    0.090914
  21 H :    0.097060
  22 H :    0.105383
  23 H :    0.103919
  24 H :    0.118121
  25 H :    0.126817
  26 H :    0.101908
  27 H :    0.128695
  28 H :    0.196565
  29 H :    0.193473
  30 H :    0.153355
  31 H :    0.152823
  32 H :    0.158564
  33 H :    0.127603
  34 H :    0.239939
  35 H :    0.164134
Sum of atomic charges:    0.0000000

LOEWDIN ATOMIC CHARGES
----------------------
   0 C :    0.103950
   1 C :   -0.014629
   2 O :    0.309095
   3 C :   -0.414457
   4 O :    0.099317
   5 C :   -0.090812
   6 C :   -0.063669
   7 C :    0.124770
   8 N :    0.405058
   9 C :   -0.459314
  10 S :   -0.035651
  11 N :    0.398131
  12 C :   -0.046874
  13 C :   -0.038727
  14 C :    0.022465
  15 C :    0.040922
  16 C :   -0.002194
  17 C :   -0.192469
  18 O :    0.392923
  19 C :    0.028368
  20 H :   -0.030016
  21 H :   -0.025579
  22 H :   -0.024628
  23 H :   -0.028063
  24 H :   -0.026498
  25 H :   -0.009155
  26 H :   -0.021352
  27 H :   -0.009160
  28 H :   -0.059276
  29 H :   -0.063519
  30 H :   -0.005357
  31 H :   -0.025410
  32 H :   -0.021362
  33 H :   -0.036493
  34 H :   -0.155000
  35 H :   -0.025339

  Mayer bond orders larger than 0.100000
B(  0-C ,  1-C ) :   0.9665 B(  0-C , 20-H ) :   0.9787 B(  0-C , 21-H ) :   0.9759
B(  0-C , 22-H ) :   0.9778 B(  1-C ,  2-O ) :   0.8872 B(  1-C , 23-H ) :   0.9844
B(  1-C , 24-H ) :   0.9736 B(  2-O ,  3-C ) :   1.1716 B(  3-C ,  4-O ) :   1.9569
B(  3-C ,  5-C ) :   1.0721 B(  5-C ,  6-C ) :   1.6403 B(  5-C , 12-C ) :   0.9677
B(  6-C ,  7-C ) :   0.9561 B(  6-C ,  8-N ) :   1.1549 B(  7-C , 25-H ) :   0.9646
B(  7-C , 26-H ) :   0.9914 B(  7-C , 27-H ) :   0.9643 B(  8-N ,  9-C ) :   1.1761
B(  8-N , 28-H ) :   0.9486 B(  9-C , 10-S ) :   1.6111 B(  9-C , 11-N ) :   1.3055
B( 11-N , 12-C ) :   0.9932 B( 11-N , 29-H ) :   0.9520 B( 12-C , 13-C ) :   0.9473
B( 12-C , 30-H ) :   1.0010 B( 13-C , 14-C ) :   1.3748 B( 13-C , 19-C ) :   1.3692
B( 14-C , 15-C ) :   1.3946 B( 14-C , 31-H ) :   0.9652 B( 15-C , 16-C ) :   1.3624
B( 15-C , 32-H ) :   0.9716 B( 16-C , 17-C ) :   1.3317 B( 16-C , 33-H ) :   0.9861
B( 17-C , 18-O ) :   1.1078 B( 17-C , 19-C ) :   1.3796 B( 18-O , 34-H ) :   0.9807
B( 19-C , 35-H ) :   0.9584

MP2 TOTAL ENERGY:    -1274.349414888 Eh
FINAL SINGLE POINT ENERGY     -1274.349414888180

DIPOLE MOMENT
-------------
                                X             Y             Z
Electronic contribution:      9.68554       8.31005      12.94260
Nuclear contribution   :    -11.38897      -9.36153     -13.88015
                        -----------------------------------------
Total Dipole Moment    :     -1.70343      -1.05148      -0.93755
                        -----------------------------------------
Magnitude (a.u.)       :      2.21049
Magnitude (Debye)      :      5.61862

Rotational constants in cm-1:     0.010627     0.008569     0.005648
Rotational constants in MHz :   318.580394   256.895897   169.320744

                             ****ORCA TERMINATED NORMALLY****
TOTAL RUN TIME: 0 days 1 hours 29 minutes 36 seconds 958 msec
