                         Program Version 4.2.0 -  RELEASE  -
|  1> ! ri-mp2 cc-pvtz cc-pvtz/c TightSCF  NoKeepInts
|  2>
|  3> %scf
|  4>   MaxCore 4096
|  5> end
|  6> *xyz  0  1
|  7>     C       15.3751284   13.7407985   15.4567077
|  8>     C       15.1176078   15.0050448   16.3041651
|  9>     O       16.1691836   15.9753329   16.1198429
| 10>     C       17.4097396   15.7888243   16.6649710
| 11>     O       17.8909790   14.6812853   16.8330361
| 12>     C       17.8294797   16.9482253   17.5197025
| 13>     C       17.4923190   18.2397193   17.2715676
| 14>     C       16.6843290   18.7773081   16.1084631
| 15>     N       17.9748173   19.2561106   18.1021029
| 16>     C       18.9015335   19.0808829   19.0959555
| 17>     S       19.5098441   20.3568210   19.9547444
| 18>     N       19.2993687   17.7908218   19.3414661
| 19>     C       18.6974032   16.5902841   18.7308576
| 20>     C       17.8899532   15.8113817   19.7661373
| 21>     C       18.1542344   14.4489746   19.9983920
| 22>     C       17.4085232   13.7252808   20.9439320
| 23>     C       16.3880976   14.3685734   21.6647066
| 24>     C       16.1186704   15.7243069   21.4335738
| 25>     O       15.1288584   16.3464824   22.1223668
| 26>     C       16.8620761   16.4417362   20.4912024
| 27>     H       15.6377235   14.0106442   14.4264338
| 28>     H       14.4753413   13.1147862   15.4265675
| 29>     H       16.1854522   13.1313536   15.8737813
| 30>     H       14.1669606   15.4519700   15.9864501
| 31>     H       15.0265481   14.7354808   17.3653523
| 32>     H       16.9801072   18.2941472   15.1688272
| 33>     H       16.8170562   19.8569426   15.9678200
| 34>     H       15.6143631   18.5888773   16.2610849
| 35>     H       17.6952401   20.2099040   17.9371187
| 36>     H       19.9605273   17.6860905   20.1003011
| 37>     H       19.5177217   15.9484209   18.3783001
| 38>     H       18.9307649   13.9446315   19.4283255
| 39>     H       17.6196019   12.6703415   21.1095558
| 40>     H       15.8086873   13.8129431   22.3944504
| 41>     H       14.7698250   15.7064450   22.7550882
| 42>     H       16.6389331   17.4908265   20.3306495
| 43> *
| 44>
| 45>                          ****END OF INPUT****

CARTESIAN COORDINATES (ANGSTROEM)
---------------------------------
  C     15.375128   13.740799   15.456708
  C     15.117608   15.005045   16.304165
  O     16.169184   15.975333   16.119843
  C     17.409740   15.788824   16.664971
  O     17.890979   14.681285   16.833036
  C     17.829480   16.948225   17.519703
  C     17.492319   18.239719   17.271568
  C     16.684329   18.777308   16.108463
  N     17.974817   19.256111   18.102103
  C     18.901533   19.080883   19.095955
  S     19.509844   20.356821   19.954744
  N     19.299369   17.790822   19.341466
  C     18.697403   16.590284   18.730858
  C     17.889953   15.811382   19.766137
  C     18.154234   14.448975   19.998392
  C     17.408523   13.725281   20.943932
  C     16.388098   14.368573   21.664707
  C     16.118670   15.724307   21.433574
  O     15.128858   16.346482   22.122367
  C     16.862076   16.441736   20.491202
  H     15.637723   14.010644   14.426434
  H     14.475341   13.114786   15.426567
  H     16.185452   13.131354   15.873781
  H     14.166961   15.451970   15.986450
  H     15.026548   14.735481   17.365352
  H     16.980107   18.294147   15.168827
  H     16.817056   19.856943   15.967820
  H     15.614363   18.588877   16.261085
  H     17.695240   20.209904   17.937119
  H     19.960527   17.686090   20.100301
  H     19.517722   15.948421   18.378300
  H     18.930765   13.944631   19.428325
  H     17.619602   12.670341   21.109556
  H     15.808687   13.812943   22.394450
  H     14.769825   15.706445   22.755088
  H     16.638933   17.490826   20.330649

 Total Charge           Charge          ....    0
 Multiplicity           Mult            ....    1
 Number of Electrons    NEL             ....  154
 Basis Dimension        Dim             ....  828

ORBITAL ENERGIES
----------------

  NO   OCC          E(Eh)            E(eV)
   0   2.0000     -91.887788     -2500.3938
   1   2.0000     -20.593732      -560.3840
   2   2.0000     -20.592747      -560.3571
   3   2.0000     -20.552428      -559.2600
   4   2.0000     -15.627291      -425.2402
   5   2.0000     -15.607066      -424.6899
   6   2.0000     -11.397238      -310.1346
   7   2.0000     -11.383020      -309.7477
   8   2.0000     -11.332764      -308.3802
   9   2.0000     -11.309822      -307.7559
  10   2.0000     -11.307053      -307.6805
  11   2.0000     -11.302580      -307.5588
  12   2.0000     -11.259324      -306.3818
  13   2.0000     -11.258732      -306.3657
  14   2.0000     -11.255545      -306.2789
  15   2.0000     -11.250038      -306.1291
  16   2.0000     -11.239641      -305.8462
  17   2.0000     -11.235518      -305.7340
  18   2.0000     -11.232785      -305.6596
  19   2.0000     -11.220227      -305.3179
  20   2.0000      -8.892864      -241.9871
  21   2.0000      -6.574445      -178.8997
  22   2.0000      -6.572434      -178.8450
  23   2.0000      -6.571852      -178.8292
  24   2.0000      -1.451144       -39.4876
  25   2.0000      -1.413487       -38.4629
  26   2.0000      -1.358330       -36.9620
  27   2.0000      -1.338558       -36.4240
  28   2.0000      -1.236710       -33.6526
  29   2.0000      -1.153997       -31.4018
  30   2.0000      -1.119801       -30.4713
  31   2.0000      -1.042674       -28.3726
  32   2.0000      -1.032049       -28.0835
  33   2.0000      -1.011478       -27.5237
  34   2.0000      -0.997237       -27.1362
  35   2.0000      -0.982548       -26.7365
  36   2.0000      -0.921941       -25.0873
  37   2.0000      -0.889378       -24.2012
  38   2.0000      -0.847684       -23.0667
  39   2.0000      -0.837002       -22.7760
  40   2.0000      -0.830094       -22.5880
  41   2.0000      -0.821363       -22.3504
  42   2.0000      -0.748862       -20.3776
  43   2.0000      -0.731405       -19.9025
  44   2.0000      -0.726448       -19.7677
  45   2.0000      -0.692418       -18.8417
  46   2.0000      -0.685256       -18.6468
  47   2.0000      -0.680998       -18.5309
  48   2.0000      -0.671360       -18.2686
  49   2.0000      -0.663945       -18.0669
  50   2.0000      -0.645889       -17.5755
  51   2.0000      -0.641854       -17.4657
  52   2.0000      -0.633990       -17.2517
  53   2.0000      -0.604057       -16.4372
  54   2.0000      -0.601444       -16.3661
  55   2.0000      -0.597738       -16.2653
  56   2.0000      -0.595060       -16.1924
  57   2.0000      -0.586372       -15.9560
  58   2.0000      -0.574411       -15.6305
  59   2.0000      -0.569599       -15.4996
  60   2.0000      -0.560633       -15.2556
  61   2.0000      -0.546536       -14.8720
  62   2.0000      -0.535323       -14.5669
  63   2.0000      -0.519087       -14.1251
  64   2.0000      -0.517747       -14.0886
  65   2.0000      -0.510774       -13.8989
  66   2.0000      -0.501994       -13.6599
  67   2.0000      -0.496242       -13.5034
  68   2.0000      -0.480260       -13.0685
  69   2.0000      -0.463110       -12.6019
  70   2.0000      -0.456149       -12.4124
  71   2.0000      -0.449238       -12.2244
  72   2.0000      -0.353115        -9.6087
  73   2.0000      -0.345825        -9.4104
  74   2.0000      -0.327074        -8.9001
  75   2.0000      -0.317001        -8.6260
  76   2.0000      -0.314617        -8.5612
  77   0.0000       0.074466         2.0263
  78   0.0000       0.108945         2.9645
  79   0.0000       0.120947         3.2911
  80   0.0000       0.134230         3.6526
  81   0.0000       0.138912         3.7800

MULLIKEN ATOMIC CHARGES
-----------------------
   0 C :   -0.288898
   1 C :    0.046771
   2 O :   -0.365266
   3 C :    0.435558
   4 O :   -0.413851
   5 C :   -0.153323
   6 C :    0.135660
   7 C :   -0.283024
   8 N :   -0.123254
   9 C :    0.202579
  10 S :   -0.440835
  11 N :   -0.199571
  12 C :    0.045118
  13 C :    0.050649
  14 C :   -0.165344
  15 C :   -0.133498
  16 C :   -0.280727
  17 C :    0.311677
  18 O :   -0.358432
  19 C :   -0.273556
  20 H :    0.092218
  21 H :    0.091038
  22 H :    0.124459
  23 H :    0.099559
  24 H :    0.095542
  25 H :    0.123315
  26 H :    0.102260
  27 H :    0.126406
  28 H :    0.196853
  29 H :    0.193811
  30 H :    0.154895
  31 H :    0.155093
  32 H :    0.160077
  33 H :    0.129333
  34 H :    0.240298
  35 H :    0.166408
Sum of atomic charges:    0.0000000

LOEWDIN ATOMIC CHARGES
----------------------
   0 C :    0.104607
   1 C :   -0.013336
   2 O :    0.291346
   3 C :   -0.411120
   4 O :    0.124101
   5 C :   -0.091651
   6 C :   -0.071833
   7 C :    0.125431
   8 N :    0.404072
   9 C :   -0.458066
  10 S :   -0.037210
  11 N :    0.397290
  12 C :   -0.045676
  13 C :   -0.039638
  14 C :    0.020775
  15 C :    0.040594
  16 C :   -0.002559
  17 C :   -0.193254
  18 O :    0.393325
  19 C :    0.028557
  20 H :   -0.028345
  21 H :   -0.030125
  22 H :   -0.026884
  23 H :   -0.024818
  24 H :   -0.027571
  25 H :   -0.008673
  26 H :   -0.020188
  27 H :   -0.009738
  28 H :   -0.058993
  29 H :   -0.064023
  30 H :   -0.005143
  31 H :   -0.025203
  32 H :   -0.020941
  33 H :   -0.036089
  34 H :   -0.154599
  35 H :   -0.024423

  Mayer bond orders larger than 0.100000
B(  0-C ,  1-C ) :   0.9731 B(  0-C , 20-H ) :   0.9757 B(  0-C , 21-H ) :   0.9764
B(  0-C , 22-H ) :   0.9711 B(  1-C ,  2-O ) :   0.9051 B(  1-C , 23-H ) :   0.9838
B(  1-C , 24-H ) :   0.9752 B(  2-O ,  3-C ) :   1.0947 B(  3-C ,  4-O ) :   1.9867
B(  3-C ,  5-C ) :   1.0420 B(  5-C ,  6-C ) :   1.6626 B(  5-C , 12-C ) :   0.9633
B(  6-C ,  7-C ) :   0.9537 B(  6-C ,  8-N ) :   1.1387 B(  7-C , 25-H ) :   0.9693
B(  7-C , 26-H ) :   0.9894 B(  7-C , 27-H ) :   0.9629 B(  8-N ,  9-C ) :   1.1836
B(  8-N , 28-H ) :   0.9497 B(  9-C , 10-S ) :   1.6095 B(  9-C , 11-N ) :   1.3010
B( 11-N , 12-C ) :   0.9931 B( 11-N , 29-H ) :   0.9517 B( 12-C , 13-C ) :   0.9451
B( 12-C , 30-H ) :   0.9988 B( 13-C , 14-C ) :   1.3766 B( 13-C , 19-C ) :   1.3691
B( 14-C , 15-C ) :   1.3944 B( 14-C , 31-H ) :   0.9645 B( 15-C , 16-C ) :   1.3632
B( 15-C , 32-H ) :   0.9711 B( 16-C , 17-C ) :   1.3308 B( 16-C , 33-H ) :   0.9855
B( 17-C , 18-O ) :   1.1090 B( 17-C , 19-C ) :   1.3772 B( 18-O , 34-H ) :   0.9803
B( 19-C , 35-H ) :   0.9580

MP2 TOTAL ENERGY:    -1274.330832488 Eh
FINAL SINGLE POINT ENERGY     -1274.330832488496

DIPOLE MOMENT
-------------
                                X             Y             Z
Electronic contribution:     10.40145      10.54600       9.48453
Nuclear contribution   :    -11.98318     -11.73354     -10.21266
                        -----------------------------------------
Total Dipole Moment    :     -1.58173      -1.18753      -0.72812
                        -----------------------------------------
Magnitude (a.u.)       :      2.10767
Magnitude (Debye)      :      5.35726

Rotational constants in cm-1:     0.011214     0.008996     0.006107
Rotational constants in MHz :   336.183412   269.684746   183.086775

                             ****ORCA TERMINATED NORMALLY****
TOTAL RUN TIME: 0 days 1 hours 36 minutes 44 seconds 80 msec
