                         Program Version 4.2.0 -  RELEASE  -
|  1> ! ri-mp2 cc-pvtz cc-pvtz/c TightSCF  NoKeepInts
|  2>
|  3> %scf
|  4>   MaxCore 4096
|  5> end
|  6> *xyz  0  1
|  7>     C       15.4709119   13.9061141   17.2643120
|  8>     C       16.4255997   14.0987365   16.0728615
|  9>     O       17.4297470   15.0707729   16.4269411
| 10>     C       17.1806611   16.3965404   16.2013100
| 11>     O       16.4387500   16.7643696   15.3063442
| 12>     C       17.6438724   17.2806367   17.3274946
| 13>     C       17.3723657   18.6108748   17.3676488
| 14>     C       16.5571200   19.4145384   16.3769105
| 15>     N       17.9070489   19.4041681   18.3874987
| 16>     C       18.8469407   18.9846073   19.2906568
| 17>     S       19.5463015   20.0213438   20.3733581
| 18>     N       19.1906069   17.6578815   19.2407733
| 19>     C       18.4958787   16.6373769   18.4354090
| 20>     C       17.6890060   15.7373717   19.3658679
| 21>     C       18.1878176   14.4729556   19.7320657
| 22>     C       17.4692973   13.6483089   20.6143376
| 23>     C       16.2414987   14.0913092   21.1351669
| 24>     C       15.7450529   15.3524471   20.7778665
| 25>     O       14.5613562   15.7841879   21.2810063
| 26>     C       16.4644326   16.1729657   19.9036371
| 27>     H       16.0101760   13.5158474   18.1342627
| 28>     H       14.6788349   13.1923386   17.0084144
| 29>     H       14.9969506   14.8554863   17.5432863
| 30>     H       16.9139395   13.1395866   15.8585326
| 31>     H       15.8691773   14.3969705   15.1737743
| 32>     H       15.5347271   19.0210321   16.3103382
| 33>     H       16.9976435   19.3518568   15.3736921
| 34>     H       16.4855404   20.4761921   16.6406816
| 35>     H       17.6720904   20.3828826   18.4313797
| 36>     H       19.8629936   17.3710388   19.9402052
| 37>     H       19.2650010   16.0231391   17.9462159
| 38>     H       19.1370970   14.1281067   19.3310400
| 39>     H       17.8638191   12.6721907   20.8913702
| 40>     H       15.6822901   13.4579426   21.8159489
| 41>     H       14.2431937   15.1083092   21.8982365
| 42>     H       16.0692599   17.1515726   19.6551551
| 43> *
| 44>
| 45>                          ****END OF INPUT****

CARTESIAN COORDINATES (ANGSTROEM)
---------------------------------
  C     15.470912   13.906114   17.264312
  C     16.425600   14.098736   16.072861
  O     17.429747   15.070773   16.426941
  C     17.180661   16.396540   16.201310
  O     16.438750   16.764370   15.306344
  C     17.643872   17.280637   17.327495
  C     17.372366   18.610875   17.367649
  C     16.557120   19.414538   16.376911
  N     17.907049   19.404168   18.387499
  C     18.846941   18.984607   19.290657
  S     19.546301   20.021344   20.373358
  N     19.190607   17.657881   19.240773
  C     18.495879   16.637377   18.435409
  C     17.689006   15.737372   19.365868
  C     18.187818   14.472956   19.732066
  C     17.469297   13.648309   20.614338
  C     16.241499   14.091309   21.135167
  C     15.745053   15.352447   20.777866
  O     14.561356   15.784188   21.281006
  C     16.464433   16.172966   19.903637
  H     16.010176   13.515847   18.134263
  H     14.678835   13.192339   17.008414
  H     14.996951   14.855486   17.543286
  H     16.913940   13.139587   15.858533
  H     15.869177   14.396971   15.173774
  H     15.534727   19.021032   16.310338
  H     16.997643   19.351857   15.373692
  H     16.485540   20.476192   16.640682
  H     17.672090   20.382883   18.431380
  H     19.862994   17.371039   19.940205
  H     19.265001   16.023139   17.946216
  H     19.137097   14.128107   19.331040
  H     17.863819   12.672191   20.891370
  H     15.682290   13.457943   21.815949
  H     14.243194   15.108309   21.898236
  H     16.069260   17.151573   19.655155

 Total Charge           Charge          ....    0
 Multiplicity           Mult            ....    1
 Number of Electrons    NEL             ....  154
 Basis Dimension        Dim             ....  828

ORBITAL ENERGIES
----------------

  NO   OCC          E(Eh)            E(eV)
   0   2.0000     -91.889365     -2500.4368
   1   2.0000     -20.598905      -560.5247
   2   2.0000     -20.595417      -560.4298
   3   2.0000     -20.542791      -558.9978
   4   2.0000     -15.629975      -425.3133
   5   2.0000     -15.608448      -424.7275
   6   2.0000     -11.394675      -310.0649
   7   2.0000     -11.384215      -309.7802
   8   2.0000     -11.336994      -308.4953
   9   2.0000     -11.315931      -307.9221
  10   2.0000     -11.309878      -307.7574
  11   2.0000     -11.293409      -307.3093
  12   2.0000     -11.261460      -306.4399
  13   2.0000     -11.259729      -306.3928
  14   2.0000     -11.257462      -306.3311
  15   2.0000     -11.252606      -306.1990
  16   2.0000     -11.244844      -305.9878
  17   2.0000     -11.239737      -305.8488
  18   2.0000     -11.239365      -305.8387
  19   2.0000     -11.220204      -305.3173
  20   2.0000      -8.894409      -242.0292
  21   2.0000      -6.575980      -178.9415
  22   2.0000      -6.573980      -178.8871
  23   2.0000      -6.573390      -178.8710
  24   2.0000      -1.449333       -39.4384
  25   2.0000      -1.418522       -38.5999
  26   2.0000      -1.352930       -36.8151
  27   2.0000      -1.340984       -36.4900
  28   2.0000      -1.239360       -33.7247
  29   2.0000      -1.159115       -31.5411
  30   2.0000      -1.120743       -30.4970
  31   2.0000      -1.043624       -28.3984
  32   2.0000      -1.033587       -28.1253
  33   2.0000      -1.017104       -27.6768
  34   2.0000      -0.996540       -27.1172
  35   2.0000      -0.984680       -26.7945
  36   2.0000      -0.923605       -25.1326
  37   2.0000      -0.891215       -24.2512
  38   2.0000      -0.847678       -23.0665
  39   2.0000      -0.839766       -22.8512
  40   2.0000      -0.835265       -22.7287
  41   2.0000      -0.814337       -22.1592
  42   2.0000      -0.757321       -20.6077
  43   2.0000      -0.733705       -19.9651
  44   2.0000      -0.722452       -19.6589
  45   2.0000      -0.697937       -18.9918
  46   2.0000      -0.689407       -18.7597
  47   2.0000      -0.678295       -18.4573
  48   2.0000      -0.668856       -18.2005
  49   2.0000      -0.665975       -18.1221
  50   2.0000      -0.648469       -17.6457
  51   2.0000      -0.643679       -17.5154
  52   2.0000      -0.635622       -17.2961
  53   2.0000      -0.609806       -16.5937
  54   2.0000      -0.602834       -16.4039
  55   2.0000      -0.599892       -16.3239
  56   2.0000      -0.597880       -16.2691
  57   2.0000      -0.579431       -15.7671
  58   2.0000      -0.571081       -15.5399
  59   2.0000      -0.566342       -15.4110
  60   2.0000      -0.558040       -15.1850
  61   2.0000      -0.547216       -14.8905
  62   2.0000      -0.536273       -14.5927
  63   2.0000      -0.527265       -14.3476
  64   2.0000      -0.526934       -14.3386
  65   2.0000      -0.513479       -13.9725
  66   2.0000      -0.503212       -13.6931
  67   2.0000      -0.498471       -13.5641
  68   2.0000      -0.478903       -13.0316
  69   2.0000      -0.463690       -12.6176
  70   2.0000      -0.452207       -12.3052
  71   2.0000      -0.445758       -12.1297
  72   2.0000      -0.355855        -9.6833
  73   2.0000      -0.351416        -9.5625
  74   2.0000      -0.328969        -8.9517
  75   2.0000      -0.323708        -8.8085
  76   2.0000      -0.316697        -8.6178
  77   0.0000       0.073865         2.0100
  78   0.0000       0.104473         2.8429
  79   0.0000       0.122873         3.3436
  80   0.0000       0.131505         3.5784
  81   0.0000       0.135528         3.6879

MULLIKEN ATOMIC CHARGES
-----------------------
   0 C :   -0.312301
   1 C :    0.028423
   2 O :   -0.368346
   3 C :    0.462968
   4 O :   -0.427391
   5 C :   -0.237925
   6 C :    0.154626
   7 C :   -0.269322
   8 N :   -0.123350
   9 C :    0.215900
  10 S :   -0.440042
  11 N :   -0.206671
  12 C :    0.054854
  13 C :    0.088271
  14 C :   -0.195734
  15 C :   -0.135032
  16 C :   -0.278855
  17 C :    0.322938
  18 O :   -0.359093
  19 C :   -0.273833
  20 H :    0.105739
  21 H :    0.111168
  22 H :    0.106485
  23 H :    0.105571
  24 H :    0.119401
  25 H :    0.130224
  26 H :    0.132998
  27 H :    0.094947
  28 H :    0.198032
  29 H :    0.194199
  30 H :    0.149713
  31 H :    0.147482
  32 H :    0.162556
  33 H :    0.131487
  34 H :    0.241645
  35 H :    0.168266
Sum of atomic charges:    0.0000000

LOEWDIN ATOMIC CHARGES
----------------------
   0 C :    0.104061
   1 C :   -0.015034
   2 O :    0.297857
   3 C :   -0.415373
   4 O :    0.101335
   5 C :   -0.095869
   6 C :   -0.058047
   7 C :    0.131109
   8 N :    0.407275
   9 C :   -0.455301
  10 S :   -0.034809
  11 N :    0.396437
  12 C :   -0.052683
  13 C :   -0.035279
  14 C :    0.011009
  15 C :    0.040637
  16 C :   -0.002121
  17 C :   -0.188477
  18 O :    0.396158
  19 C :    0.033010
  20 H :   -0.026600
  21 H :   -0.026921
  22 H :   -0.027770
  23 H :   -0.026561
  24 H :   -0.028915
  25 H :   -0.005211
  26 H :   -0.003447
  27 H :   -0.023373
  28 H :   -0.057491
  29 H :   -0.065418
  30 H :   -0.008659
  31 H :   -0.030377
  32 H :   -0.020756
  33 H :   -0.035357
  34 H :   -0.153200
  35 H :   -0.025840

  Mayer bond orders larger than 0.100000
B(  0-C ,  1-C ) :   0.9628 B(  0-C , 20-H ) :   0.9728 B(  0-C , 21-H ) :   0.9779
B(  0-C , 22-H ) :   0.9745 B(  1-C ,  2-O ) :   0.8849 B(  1-C , 23-H ) :   0.9857
B(  1-C , 24-H ) :   0.9774 B(  2-O ,  3-C ) :   1.1429 B(  3-C ,  4-O ) :   1.9826
B(  3-C ,  5-C ) :   1.0617 B(  5-C ,  6-C ) :   1.6516 B(  5-C , 12-C ) :   0.9752
B(  6-C ,  7-C ) :   0.9686 B(  6-C ,  8-N ) :   1.1610 B(  7-C , 25-H ) :   0.9612
B(  7-C , 26-H ) :   0.9589 B(  7-C , 27-H ) :   0.9902 B(  8-N ,  9-C ) :   1.1818
B(  8-N , 28-H ) :   0.9478 B(  9-C , 10-S ) :   1.6052 B(  9-C , 11-N ) :   1.3074
B( 11-N , 12-C ) :   0.9682 B( 11-N , 29-H ) :   0.9526 B( 12-C , 13-C ) :   0.9430
B( 12-C , 30-H ) :   1.0029 B( 13-C , 14-C ) :   1.3512 B( 13-C , 19-C ) :   1.3653
B( 14-C , 15-C ) :   1.3899 B( 14-C , 31-H ) :   0.9741 B( 15-C , 16-C ) :   1.3608
B( 15-C , 32-H ) :   0.9710 B( 16-C , 17-C ) :   1.3321 B( 16-C , 33-H ) :   0.9849
B( 17-C , 18-O ) :   1.1105 B( 17-C , 19-C ) :   1.3668 B( 18-O , 34-H ) :   0.9793
B( 19-C , 35-H ) :   0.9585

MP2 TOTAL ENERGY:    -1274.345818263 Eh
FINAL SINGLE POINT ENERGY     -1274.345818262771

DIPOLE MOMENT
-------------
                                X             Y             Z
Electronic contribution:      8.81930      10.41439       5.53590
Nuclear contribution   :     -9.69744     -12.11228      -5.70596
                        -----------------------------------------
Total Dipole Moment    :     -0.87814      -1.69789      -0.17006
                        -----------------------------------------
Magnitude (a.u.)       :      1.91909
Magnitude (Debye)      :      4.87793

Rotational constants in cm-1:     0.012342     0.009035     0.006487
Rotational constants in MHz :   370.014218   270.871691   194.475425

                             ****ORCA TERMINATED NORMALLY****
TOTAL RUN TIME: 0 days 1 hours 45 minutes 44 seconds 90 msec
