                         Program Version 4.2.0 -  RELEASE  -
|  1> ! ri-mp2 cc-pvtz cc-pvtz/c TightSCF  NoKeepInts
|  2>
|  3> %scf
|  4>   MaxCore 4096
|  5> end
|  6> *xyz  0  1
|  7>     C       14.8537733   15.3078847   17.5402178
|  8>     C       15.7011955   15.1857692   16.2625938
|  9>     O       17.0444358   14.8441347   16.6374916
| 10>     C       18.0923608   15.7041647   16.4642345
| 11>     O       19.1950248   15.2206934   16.2886880
| 12>     C       17.9762050   16.8853118   17.3675456
| 13>     C       17.4482656   18.0595099   16.9551607
| 14>     C       16.9106342   18.3823008   15.5781490
| 15>     N       17.4352996   19.1580374   17.8174612
| 16>     C       18.0431499   19.1915279   19.0454912
| 17>     S       18.0415683   20.5578615   19.9769805
| 18>     N       18.6529806   18.0343038   19.4639775
| 19>     C       18.6035170   16.7384152   18.7566177
| 20>     C       17.9028913   15.6684866   19.5911295
| 21>     C       18.3756917   14.3432882   19.5686535
| 22>     C       17.7388056   13.3408199   20.3186478
| 23>     C       16.6176491   13.6643925   21.1010608
| 24>     C       16.1417573   14.9820275   21.1260282
| 25>     O       15.0518367   15.2953357   21.8708119
| 26>     C       16.7780674   15.9785661   20.3792004
| 27>     H       14.9848990   14.4242910   18.1781947
| 28>     H       13.7895304   15.3964104   17.2910691
| 29>     H       15.1421917   16.1952156   18.1153809
| 30>     H       15.2925341   14.3705426   15.6512583
| 31>     H       15.6509281   16.1015696   15.6668792
| 32>     H       17.2264079   17.6477475   14.8273117
| 33>     H       17.2803827   19.3563477   15.2324081
| 34>     H       15.8144992   18.4238070   15.5823557
| 35>     H       17.0062723   20.0215706   17.5241895
| 36>     H       19.0787463   18.0830109   20.3809225
| 37>     H       19.6425883   16.4094599   18.6073624
| 38>     H       19.2320583   14.0862839   18.9486119
| 39>     H       18.1114525   12.3186035   20.2843498
| 40>     H       16.1205859   12.8922243   21.6786580
| 41>     H       14.7834956   14.4928879   22.3431807
| 42>     H       16.3853180   16.9891959   20.4117266
| 43> *
| 44>
| 45>                          ****END OF INPUT****

CARTESIAN COORDINATES (ANGSTROEM)
---------------------------------
  C     14.853773   15.307885   17.540218
  C     15.701196   15.185769   16.262594
  O     17.044436   14.844135   16.637492
  C     18.092361   15.704165   16.464234
  O     19.195025   15.220693   16.288688
  C     17.976205   16.885312   17.367546
  C     17.448266   18.059510   16.955161
  C     16.910634   18.382301   15.578149
  N     17.435300   19.158037   17.817461
  C     18.043150   19.191528   19.045491
  S     18.041568   20.557861   19.976980
  N     18.652981   18.034304   19.463977
  C     18.603517   16.738415   18.756618
  C     17.902891   15.668487   19.591129
  C     18.375692   14.343288   19.568653
  C     17.738806   13.340820   20.318648
  C     16.617649   13.664392   21.101061
  C     16.141757   14.982027   21.126028
  O     15.051837   15.295336   21.870812
  C     16.778067   15.978566   20.379200
  H     14.984899   14.424291   18.178195
  H     13.789530   15.396410   17.291069
  H     15.142192   16.195216   18.115381
  H     15.292534   14.370543   15.651258
  H     15.650928   16.101570   15.666879
  H     17.226408   17.647747   14.827312
  H     17.280383   19.356348   15.232408
  H     15.814499   18.423807   15.582356
  H     17.006272   20.021571   17.524189
  H     19.078746   18.083011   20.380922
  H     19.642588   16.409460   18.607362
  H     19.232058   14.086284   18.948612
  H     18.111452   12.318604   20.284350
  H     16.120586   12.892224   21.678658
  H     14.783496   14.492888   22.343181
  H     16.385318   16.989196   20.411727

 Total Charge           Charge          ....    0
 Multiplicity           Mult            ....    1
 Number of Electrons    NEL             ....  154
 Basis Dimension        Dim             ....  828

ORBITAL ENERGIES
----------------

  NO   OCC          E(Eh)            E(eV)
   0   2.0000     -91.887159     -2500.3767
   1   2.0000     -20.597957      -560.4989
   2   2.0000     -20.596135      -560.4493
   3   2.0000     -20.562758      -559.5411
   4   2.0000     -15.622290      -425.1041
   5   2.0000     -15.609811      -424.7646
   6   2.0000     -11.397194      -310.1334
   7   2.0000     -11.383960      -309.7733
   8   2.0000     -11.322011      -308.0876
   9   2.0000     -11.315662      -307.9148
  10   2.0000     -11.312143      -307.8191
  11   2.0000     -11.306187      -307.6570
  12   2.0000     -11.270785      -306.6936
  13   2.0000     -11.266021      -306.5640
  14   2.0000     -11.260070      -306.4021
  15   2.0000     -11.252688      -306.2012
  16   2.0000     -11.242008      -305.9106
  17   2.0000     -11.237692      -305.7931
  18   2.0000     -11.235228      -305.7261
  19   2.0000     -11.228554      -305.5445
  20   2.0000      -8.892304      -241.9719
  21   2.0000      -6.573905      -178.8850
  22   2.0000      -6.571867      -178.8296
  23   2.0000      -6.571303      -178.8143
  24   2.0000      -1.457573       -39.6626
  25   2.0000      -1.415925       -38.5293
  26   2.0000      -1.365062       -37.1452
  27   2.0000      -1.337037       -36.3826
  28   2.0000      -1.237431       -33.6722
  29   2.0000      -1.157033       -31.4845
  30   2.0000      -1.123174       -30.5631
  31   2.0000      -1.046580       -28.4789
  32   2.0000      -1.039683       -28.2912
  33   2.0000      -1.015084       -27.6218
  34   2.0000      -1.003423       -27.3045
  35   2.0000      -0.987181       -26.8625
  36   2.0000      -0.925838       -25.1933
  37   2.0000      -0.889525       -24.2052
  38   2.0000      -0.851940       -23.1825
  39   2.0000      -0.838316       -22.8117
  40   2.0000      -0.832899       -22.6643
  41   2.0000      -0.831759       -22.6333
  42   2.0000      -0.759026       -20.6541
  43   2.0000      -0.736711       -20.0469
  44   2.0000      -0.729168       -19.8417
  45   2.0000      -0.694680       -18.9032
  46   2.0000      -0.689535       -18.7632
  47   2.0000      -0.682848       -18.5812
  48   2.0000      -0.676351       -18.4044
  49   2.0000      -0.664787       -18.0898
  50   2.0000      -0.650912       -17.7122
  51   2.0000      -0.638956       -17.3869
  52   2.0000      -0.635497       -17.2928
  53   2.0000      -0.618374       -16.8268
  54   2.0000      -0.610341       -16.6082
  55   2.0000      -0.604859       -16.4591
  56   2.0000      -0.600387       -16.3374
  57   2.0000      -0.589556       -16.0426
  58   2.0000      -0.578514       -15.7422
  59   2.0000      -0.572975       -15.5914
  60   2.0000      -0.563836       -15.3428
  61   2.0000      -0.556277       -15.1371
  62   2.0000      -0.540396       -14.7049
  63   2.0000      -0.525710       -14.3053
  64   2.0000      -0.517921       -14.0933
  65   2.0000      -0.511328       -13.9139
  66   2.0000      -0.500940       -13.6313
  67   2.0000      -0.499617       -13.5953
  68   2.0000      -0.488405       -13.2902
  69   2.0000      -0.465451       -12.6656
  70   2.0000      -0.458237       -12.4693
  71   2.0000      -0.452465       -12.3122
  72   2.0000      -0.354743        -9.6531
  73   2.0000      -0.346429        -9.4268
  74   2.0000      -0.327051        -8.8995
  75   2.0000      -0.319917        -8.7054
  76   2.0000      -0.315579        -8.5873
  77   0.0000       0.089979         2.4484
  78   0.0000       0.099083         2.6962
  79   0.0000       0.110792         3.0148
  80   0.0000       0.126145         3.4326
  81   0.0000       0.130875         3.5613

MULLIKEN ATOMIC CHARGES
-----------------------
   0 C :   -0.290152
   1 C :   -0.003415
   2 O :   -0.310791
   3 C :    0.381440
   4 O :   -0.356974
   5 C :   -0.146923
   6 C :    0.126765
   7 C :   -0.333373
   8 N :   -0.135767
   9 C :    0.208656
  10 S :   -0.446189
  11 N :   -0.224593
  12 C :    0.062712
  13 C :    0.062095
  14 C :   -0.197998
  15 C :   -0.132716
  16 C :   -0.280695
  17 C :    0.325199
  18 O :   -0.360296
  19 C :   -0.298952
  20 H :    0.116079
  21 H :    0.106097
  22 H :    0.103246
  23 H :    0.126285
  24 H :    0.083658
  25 H :    0.117709
  26 H :    0.134190
  27 H :    0.123506
  28 H :    0.194377
  29 H :    0.201600
  30 H :    0.168505
  31 H :    0.161828
  32 H :    0.161839
  33 H :    0.131351
  34 H :    0.240894
  35 H :    0.180807
Sum of atomic charges:   -0.0000000

LOEWDIN ATOMIC CHARGES
----------------------
   0 C :    0.105813
   1 C :   -0.028107
   2 O :    0.323375
   3 C :   -0.424799
   4 O :    0.146598
   5 C :   -0.075544
   6 C :   -0.115042
   7 C :    0.119397
   8 N :    0.399261
   9 C :   -0.456248
  10 S :   -0.042314
  11 N :    0.398287
  12 C :   -0.040348
  13 C :   -0.040278
  14 C :    0.024568
  15 C :    0.043740
  16 C :   -0.002397
  17 C :   -0.193198
  18 O :    0.394804
  19 C :    0.029653
  20 H :   -0.019545
  21 H :   -0.027619
  22 H :   -0.031957
  23 H :   -0.024371
  24 H :   -0.038870
  25 H :   -0.012670
  26 H :   -0.010458
  27 H :   -0.017840
  28 H :   -0.059997
  29 H :   -0.063580
  30 H :   -0.002414
  31 H :   -0.023263
  32 H :   -0.019471
  33 H :   -0.035579
  34 H :   -0.153923
  35 H :   -0.025664

  Mayer bond orders larger than 0.100000
B(  0-C ,  1-C ) :   0.9696 B(  0-C , 20-H ) :   0.9720 B(  0-C , 21-H ) :   0.9778
B(  0-C , 22-H ) :   0.9719 B(  1-C ,  2-O ) :   0.9149 B(  1-C , 23-H ) :   0.9851
B(  1-C , 24-H ) :   0.9756 B(  2-O ,  3-C ) :   1.0947 B(  3-C ,  4-O ) :   2.1000
B(  3-C ,  5-C ) :   0.9257 B(  5-C ,  6-C ) :   1.7258 B(  5-C , 12-C ) :   0.9597
B(  6-C ,  7-C ) :   0.9344 B(  6-C ,  8-N ) :   1.0991 B(  7-C , 25-H ) :   0.9837
B(  7-C , 26-H ) :   0.9739 B(  7-C , 27-H ) :   0.9675 B(  8-N ,  9-C ) :   1.2030
B(  8-N , 28-H ) :   0.9543 B(  9-C , 10-S ) :   1.6036 B(  9-C , 11-N ) :   1.2845
B( 11-N , 12-C ) :   0.9877 B( 11-N , 29-H ) :   0.9468 B( 12-C , 13-C ) :   0.9486
B( 12-C , 30-H ) :   0.9978 B( 13-C , 14-C ) :   1.3819 B( 13-C , 19-C ) :   1.3364
B( 14-C , 15-C ) :   1.4030 B( 14-C , 31-H ) :   0.9649 B( 15-C , 16-C ) :   1.3567
B( 15-C , 32-H ) :   0.9706 B( 16-C , 17-C ) :   1.3333 B( 16-C , 33-H ) :   0.9851
B( 17-C , 18-O ) :   1.1059 B( 17-C , 19-C ) :   1.3603 B( 18-O , 34-H ) :   0.9799
B( 19-C , 35-H ) :   0.9561

MP2 TOTAL ENERGY:    -1274.311430964 Eh
FINAL SINGLE POINT ENERGY     -1274.311430963527

DIPOLE MOMENT
-------------
                                X             Y             Z
Electronic contribution:      9.67638       6.54297       6.46756
Nuclear contribution   :    -11.16716      -7.80452      -7.43942
                        -----------------------------------------
Total Dipole Moment    :     -1.49078      -1.26156      -0.97186
                        -----------------------------------------
Magnitude (a.u.)       :      2.18139
Magnitude (Debye)      :      5.54465

Rotational constants in cm-1:     0.012290     0.009369     0.006905
Rotational constants in MHz :   368.447993   280.886048   206.998700

                             ****ORCA TERMINATED NORMALLY****
TOTAL RUN TIME: 0 days 1 hours 53 minutes 24 seconds 140 msec
