                         Program Version 4.2.0 -  RELEASE  -
|  1> ! ri-mp2 cc-pvtz cc-pvtz/c TightSCF  NoKeepInts
|  2>
|  3> %scf
|  4>   MaxCore 4096
|  5> end
|  6> *xyz  0  1
|  7>     C       14.9690395   16.0503226   17.3030589
|  8>     C       15.5464993   14.9874966   16.3471172
|  9>     O       16.9888379   14.8121953   16.3154194
| 10>     C       18.0579126   15.6613187   16.4986190
| 11>     O       19.1737241   15.1990877   16.3487314
| 12>     C       17.8953389   16.8256709   17.4109216
| 13>     C       17.4510515   18.0143281   16.9462975
| 14>     C       17.0141433   18.3175494   15.5283741
| 15>     N       17.4526223   19.1348950   17.7791030
| 16>     C       17.9792538   19.1632185   19.0441837
| 17>     S       17.9715083   20.5422282   19.9567246
| 18>     N       18.5195385   17.9916947   19.5158117
| 19>     C       18.5110558   16.6947304   18.8079961
| 20>     C       17.8584691   15.5888648   19.6376590
| 21>     C       18.3023122   14.2604082   19.4981266
| 22>     C       17.7182959   13.2241095   20.2449298
| 23>     C       16.6804692   13.5157451   21.1454930
| 24>     C       16.2353358   14.8360281   21.2917309
| 25>     O       15.2278677   15.1203248   22.1547575
| 26>     C       16.8186379   15.8664011   20.5471843
| 27>     H       15.4487262   16.0136331   18.2839083
| 28>     H       13.9023381   15.8512803   17.4635572
| 29>     H       15.0345127   17.0601910   16.8921498
| 30>     H       15.1032977   14.0170890   16.6065652
| 31>     H       15.2011666   15.2250375   15.3326436
| 32>     H       16.7208544   17.4147834   14.9800138
| 33>     H       17.8340504   18.7864708   14.9691695
| 34>     H       16.1572545   19.0022736   15.5085281
| 35>     H       17.0902488   20.0125642   17.4413435
| 36>     H       18.8935408   18.0413756   20.4551061
| 37>     H       19.5617974   16.4019830   18.6635125
| 38>     H       19.1009149   14.0278495   18.7963715
| 39>     H       18.0700838   12.2013259   20.1206370
| 40>     H       16.2255169   12.7178576   21.7230293
| 41>     H       14.9848533   14.2944335   22.5997820
| 42>     H       16.4459297   16.8772344   20.6754431
| 43> *
| 44>
| 45>                          ****END OF INPUT****

CARTESIAN COORDINATES (ANGSTROEM)
---------------------------------
  C     14.969039   16.050323   17.303059
  C     15.546499   14.987497   16.347117
  O     16.988838   14.812195   16.315419
  C     18.057913   15.661319   16.498619
  O     19.173724   15.199088   16.348731
  C     17.895339   16.825671   17.410922
  C     17.451051   18.014328   16.946297
  C     17.014143   18.317549   15.528374
  N     17.452622   19.134895   17.779103
  C     17.979254   19.163218   19.044184
  S     17.971508   20.542228   19.956725
  N     18.519538   17.991695   19.515812
  C     18.511056   16.694730   18.807996
  C     17.858469   15.588865   19.637659
  C     18.302312   14.260408   19.498127
  C     17.718296   13.224110   20.244930
  C     16.680469   13.515745   21.145493
  C     16.235336   14.836028   21.291731
  O     15.227868   15.120325   22.154757
  C     16.818638   15.866401   20.547184
  H     15.448726   16.013633   18.283908
  H     13.902338   15.851280   17.463557
  H     15.034513   17.060191   16.892150
  H     15.103298   14.017089   16.606565
  H     15.201167   15.225037   15.332644
  H     16.720854   17.414783   14.980014
  H     17.834050   18.786471   14.969169
  H     16.157255   19.002274   15.508528
  H     17.090249   20.012564   17.441343
  H     18.893541   18.041376   20.455106
  H     19.561797   16.401983   18.663512
  H     19.100915   14.027850   18.796371
  H     18.070084   12.201326   20.120637
  H     16.225517   12.717858   21.723029
  H     14.984853   14.294434   22.599782
  H     16.445930   16.877234   20.675443

 Total Charge           Charge          ....    0
 Multiplicity           Mult            ....    1
 Number of Electrons    NEL             ....  154
 Basis Dimension        Dim             ....  828

ORBITAL ENERGIES
----------------

  NO   OCC          E(Eh)            E(eV)
   0   2.0000     -91.888907     -2500.4243
   1   2.0000     -20.598315      -560.5086
   2   2.0000     -20.598249      -560.5069
   3   2.0000     -20.550353      -559.2035
   4   2.0000     -15.624951      -425.1765
   5   2.0000     -15.611058      -424.7985
   6   2.0000     -11.400109      -310.2127
   7   2.0000     -11.385830      -309.8242
   8   2.0000     -11.324292      -308.1497
   9   2.0000     -11.315687      -307.9155
  10   2.0000     -11.315176      -307.9016
  11   2.0000     -11.312637      -307.8325
  12   2.0000     -11.270135      -306.6760
  13   2.0000     -11.263995      -306.5089
  14   2.0000     -11.262488      -306.4679
  15   2.0000     -11.255316      -306.2727
  16   2.0000     -11.244086      -305.9671
  17   2.0000     -11.240577      -305.8717
  18   2.0000     -11.236878      -305.7710
  19   2.0000     -11.234812      -305.7148
  20   2.0000      -8.894029      -242.0188
  21   2.0000      -6.575622      -178.9318
  22   2.0000      -6.573592      -178.8765
  23   2.0000      -6.573022      -178.8610
  24   2.0000      -1.444177       -39.2981
  25   2.0000      -1.418121       -38.5890
  26   2.0000      -1.354759       -36.8649
  27   2.0000      -1.338405       -36.4199
  28   2.0000      -1.238695       -33.7066
  29   2.0000      -1.159307       -31.5463
  30   2.0000      -1.124551       -30.6006
  31   2.0000      -1.047915       -28.5152
  32   2.0000      -1.042020       -28.3548
  33   2.0000      -1.018029       -27.7020
  34   2.0000      -1.004457       -27.3327
  35   2.0000      -0.989730       -26.9319
  36   2.0000      -0.927172       -25.2296
  37   2.0000      -0.902697       -24.5636
  38   2.0000      -0.852374       -23.1943
  39   2.0000      -0.839774       -22.8514
  40   2.0000      -0.834391       -22.7049
  41   2.0000      -0.828675       -22.5494
  42   2.0000      -0.745770       -20.2934
  43   2.0000      -0.734142       -19.9770
  44   2.0000      -0.730795       -19.8859
  45   2.0000      -0.695171       -18.9166
  46   2.0000      -0.685333       -18.6489
  47   2.0000      -0.676385       -18.4054
  48   2.0000      -0.674538       -18.3551
  49   2.0000      -0.664815       -18.0905
  50   2.0000      -0.656070       -17.8526
  51   2.0000      -0.652443       -17.7539
  52   2.0000      -0.638306       -17.3692
  53   2.0000      -0.612203       -16.6589
  54   2.0000      -0.607415       -16.5286
  55   2.0000      -0.602792       -16.4028
  56   2.0000      -0.599877       -16.3235
  57   2.0000      -0.595353       -16.2004
  58   2.0000      -0.585697       -15.9376
  59   2.0000      -0.575278       -15.6541
  60   2.0000      -0.565976       -15.4010
  61   2.0000      -0.558728       -15.2038
  62   2.0000      -0.543196       -14.7811
  63   2.0000      -0.529648       -14.4124
  64   2.0000      -0.514900       -14.0111
  65   2.0000      -0.512879       -13.9561
  66   2.0000      -0.501331       -13.6419
  67   2.0000      -0.500578       -13.6214
  68   2.0000      -0.485940       -13.2231
  69   2.0000      -0.465728       -12.6731
  70   2.0000      -0.453830       -12.3493
  71   2.0000      -0.449607       -12.2344
  72   2.0000      -0.354332        -9.6419
  73   2.0000      -0.348055        -9.4711
  74   2.0000      -0.328678        -8.9438
  75   2.0000      -0.322677        -8.7805
  76   2.0000      -0.317473        -8.6389
  77   0.0000       0.093621         2.5476
  78   0.0000       0.105993         2.8842
  79   0.0000       0.110431         3.0050
  80   0.0000       0.127616         3.4726
  81   0.0000       0.130871         3.5612

MULLIKEN ATOMIC CHARGES
-----------------------
   0 C :   -0.341522
   1 C :    0.037197
   2 O :   -0.331880
   3 C :    0.383278
   4 O :   -0.375743
   5 C :   -0.182979
   6 C :    0.146191
   7 C :   -0.313323
   8 N :   -0.142678
   9 C :    0.214635
  10 S :   -0.444908
  11 N :   -0.239131
  12 C :    0.112354
  13 C :    0.014466
  14 C :   -0.214808
  15 C :   -0.134576
  16 C :   -0.275374
  17 C :    0.326737
  18 O :   -0.357153
  19 C :   -0.286414
  20 H :    0.133345
  21 H :    0.123230
  22 H :    0.097282
  23 H :    0.123245
  24 H :    0.096903
  25 H :    0.112218
  26 H :    0.151735
  27 H :    0.108609
  28 H :    0.195034
  29 H :    0.205763
  30 H :    0.166884
  31 H :    0.171818
  32 H :    0.164130
  33 H :    0.131638
  34 H :    0.241036
  35 H :    0.182764
Sum of atomic charges:    0.0000000

LOEWDIN ATOMIC CHARGES
----------------------
   0 C :    0.105346
   1 C :   -0.016169
   2 O :    0.298256
   3 C :   -0.419517
   4 O :    0.128075
   5 C :   -0.079427
   6 C :   -0.107746
   7 C :    0.123993
   8 N :    0.401847
   9 C :   -0.454319
  10 S :   -0.040108
  11 N :    0.398381
  12 C :   -0.041286
  13 C :   -0.041392
  14 C :    0.023395
  15 C :    0.045171
  16 C :   -0.001504
  17 C :   -0.193484
  18 O :    0.395150
  19 C :    0.024100
  20 H :   -0.027559
  21 H :   -0.020584
  22 H :   -0.034320
  23 H :   -0.016852
  24 H :   -0.032943
  25 H :   -0.012174
  26 H :   -0.006355
  27 H :   -0.017295
  28 H :   -0.059464
  29 H :   -0.064229
  30 H :   -0.002831
  31 H :   -0.021329
  32 H :   -0.018358
  33 H :   -0.035134
  34 H :   -0.153400
  35 H :   -0.025936

  Mayer bond orders larger than 0.100000
B(  0-C ,  1-C ) :   0.9536 B(  0-C , 20-H ) :   0.9651 B(  0-C , 21-H ) :   0.9797
B(  0-C , 22-H ) :   0.9753 B(  1-C ,  2-O ) :   0.9194 B(  1-C , 23-H ) :   0.9792
B(  1-C , 24-H ) :   0.9799 B(  2-O ,  3-C ) :   1.1344 B(  3-C ,  4-O ) :   2.0837
B(  3-C ,  5-C ) :   0.9269 B(  5-C ,  6-C ) :   1.7029 B(  5-C , 12-C ) :   0.9438
B(  6-C ,  7-C ) :   0.9428 B(  6-C ,  8-N ) :   1.1071 B(  7-C , 25-H ) :   0.9816
B(  7-C , 26-H ) :   0.9638 B(  7-C , 27-H ) :   0.9742 B(  8-N ,  9-C ) :   1.2038
B(  8-N , 28-H ) :   0.9519 B(  9-C , 10-S ) :   1.6017 B(  9-C , 11-N ) :   1.2881
B( 11-N , 12-C ) :   0.9835 B( 11-N , 29-H ) :   0.9444 B( 12-C , 13-C ) :   0.9603
B( 12-C , 30-H ) :   0.9937 B( 13-C , 14-C ) :   1.3891 B( 13-C , 19-C ) :   1.3354
B( 14-C , 15-C ) :   1.4051 B( 14-C , 31-H ) :   0.9602 B( 15-C , 16-C ) :   1.3556
B( 15-C , 32-H ) :   0.9696 B( 16-C , 17-C ) :   1.3348 B( 16-C , 33-H ) :   0.9848
B( 17-C , 18-O ) :   1.1070 B( 17-C , 19-C ) :   1.3637 B( 18-O , 34-H ) :   0.9796
B( 19-C , 35-H ) :   0.9575

MP2 TOTAL ENERGY:    -1274.314872013 Eh
FINAL SINGLE POINT ENERGY     -1274.314872012866

DIPOLE MOMENT
-------------
                                X             Y             Z
Electronic contribution:      9.16854       5.39742       7.00757
Nuclear contribution   :    -10.74972      -6.63071      -7.74244
                        -----------------------------------------
Total Dipole Moment    :     -1.58118      -1.23329      -0.73487
                        -----------------------------------------
Magnitude (a.u.)       :      2.13569
Magnitude (Debye)      :      5.42849

Rotational constants in cm-1:     0.012037     0.009321     0.006689
Rotational constants in MHz :   360.848079   279.448768   200.537368

                             ****ORCA TERMINATED NORMALLY****
TOTAL RUN TIME: 0 days 2 hours 42 minutes 29 seconds 997 msec
