                         Program Version 4.2.0 -  RELEASE  -
|  1> ! ri-mp2 cc-pvtz cc-pvtz/c TightSCF  NoKeepInts
|  2>
|  3> %scf
|  4>   MaxCore 4096
|  5> end
|  6> *xyz  0  1
|  7>     C       15.7623068   13.1667107   16.2845518
|  8>     C       15.6046051   14.5978332   16.8235384
|  9>     O       16.7929059   15.3249299   16.4642202
| 10>     C       16.7047236   16.6817972   16.3536678
| 11>     O       15.8069677   17.2004365   15.7132121
| 12>     C       17.5212598   17.4057739   17.3908911
| 13>     C       17.4814059   18.7555420   17.5344698
| 14>     C       16.6407116   19.7388646   16.7481429
| 15>     N       18.3126670   19.3865423   18.4649768
| 16>     C       19.3034007   18.7648596   19.1769234
| 17>     S       20.3293773   19.6039067   20.1663891
| 18>     N       19.4079690   17.4065108   19.0199067
| 19>     C       18.4473448   16.5632235   18.2859222
| 20>     C       17.6750303   15.6985015   19.2775944
| 21>     C       17.9376151   14.3186336   19.3708752
| 22>     C       17.2234912   13.5144840   20.2749201
| 23>     C       16.2428894   14.0953451   21.0970171
| 24>     C       15.9856124   15.4706053   21.0137513
| 25>     O       15.0403507   16.0346068   21.8067176
| 26>     C       16.6958642   16.2679666   20.1110708
| 27>     H       14.8739222   12.5678013   16.5185672
| 28>     H       16.6350873   12.6787756   16.7355628
| 29>     H       15.8933524   13.1769464   15.1952235
| 30>     H       14.7153418   15.0484742   16.3616179
| 31>     H       15.4638525   14.5918949   17.9120293
| 32>     H       15.5721662   19.5430484   16.9047395
| 33>     H       16.8363853   19.6415512   15.6726467
| 34>     H       16.8302305   20.7828227   17.0239865
| 35>     H       18.2536485   20.3848530   18.5877223
| 36>     H       20.1276507   16.9718594   19.5829454
| 37>     H       19.0271874   15.8998601   17.6285972
| 38>     H       18.6922888   13.8661293   18.7329221
| 39>     H       17.4319096   12.4476878   20.3375971
| 40>     H       15.6898217   13.4786933   21.7980568
| 41>     H       14.7013831   15.3432225   22.3951576
| 42>     H       16.4862733   17.3313063   20.0678692
| 43> *
| 44>
| 45>                          ****END OF INPUT****

CARTESIAN COORDINATES (ANGSTROEM)
---------------------------------
  C     15.762307   13.166711   16.284552
  C     15.604605   14.597833   16.823538
  O     16.792906   15.324930   16.464220
  C     16.704724   16.681797   16.353668
  O     15.806968   17.200436   15.713212
  C     17.521260   17.405774   17.390891
  C     17.481406   18.755542   17.534470
  C     16.640712   19.738865   16.748143
  N     18.312667   19.386542   18.464977
  C     19.303401   18.764860   19.176923
  S     20.329377   19.603907   20.166389
  N     19.407969   17.406511   19.019907
  C     18.447345   16.563223   18.285922
  C     17.675030   15.698502   19.277594
  C     17.937615   14.318634   19.370875
  C     17.223491   13.514484   20.274920
  C     16.242889   14.095345   21.097017
  C     15.985612   15.470605   21.013751
  O     15.040351   16.034607   21.806718
  C     16.695864   16.267967   20.111071
  H     14.873922   12.567801   16.518567
  H     16.635087   12.678776   16.735563
  H     15.893352   13.176946   15.195224
  H     14.715342   15.048474   16.361618
  H     15.463852   14.591895   17.912029
  H     15.572166   19.543048   16.904740
  H     16.836385   19.641551   15.672647
  H     16.830230   20.782823   17.023986
  H     18.253649   20.384853   18.587722
  H     20.127651   16.971859   19.582945
  H     19.027187   15.899860   17.628597
  H     18.692289   13.866129   18.732922
  H     17.431910   12.447688   20.337597
  H     15.689822   13.478693   21.798057
  H     14.701383   15.343222   22.395158
  H     16.486273   17.331306   20.067869

 Total Charge           Charge          ....    0
 Multiplicity           Mult            ....    1
 Number of Electrons    NEL             ....  154
 Basis Dimension        Dim             ....  828

ORBITAL ENERGIES
----------------

  NO   OCC          E(Eh)            E(eV)
   0   2.0000     -91.890132     -2500.4576
   1   2.0000     -20.600507      -560.5683
   2   2.0000     -20.588022      -560.2286
   3   2.0000     -20.545384      -559.0683
   4   2.0000     -15.630470      -425.3267
   5   2.0000     -15.609504      -424.7562
   6   2.0000     -11.393289      -310.0271
   7   2.0000     -11.385088      -309.8040
   8   2.0000     -11.336933      -308.4936
   9   2.0000     -11.318393      -307.9891
  10   2.0000     -11.311107      -307.7909
  11   2.0000     -11.292269      -307.2783
  12   2.0000     -11.263213      -306.4876
  13   2.0000     -11.259668      -306.3911
  14   2.0000     -11.259429      -306.3846
  15   2.0000     -11.252995      -306.2096
  16   2.0000     -11.247305      -306.0547
  17   2.0000     -11.242208      -305.9160
  18   2.0000     -11.241808      -305.9052
  19   2.0000     -11.226064      -305.4767
  20   2.0000      -8.895182      -242.0502
  21   2.0000      -6.576753      -178.9626
  22   2.0000      -6.574752      -178.9081
  23   2.0000      -6.574162      -178.8920
  24   2.0000      -1.449463       -39.4419
  25   2.0000      -1.420191       -38.6454
  26   2.0000      -1.353016       -36.8174
  27   2.0000      -1.341530       -36.5049
  28   2.0000      -1.240115       -33.7452
  29   2.0000      -1.161301       -31.6006
  30   2.0000      -1.121310       -30.5124
  31   2.0000      -1.045335       -28.4450
  32   2.0000      -1.035673       -28.1821
  33   2.0000      -1.019375       -27.7386
  34   2.0000      -0.997036       -27.1307
  35   2.0000      -0.985417       -26.8146
  36   2.0000      -0.924708       -25.1626
  37   2.0000      -0.881483       -23.9864
  38   2.0000      -0.848524       -23.0895
  39   2.0000      -0.840934       -22.8830
  40   2.0000      -0.837616       -22.7927
  41   2.0000      -0.824215       -22.4280
  42   2.0000      -0.762131       -20.7387
  43   2.0000      -0.735611       -20.0170
  44   2.0000      -0.724288       -19.7089
  45   2.0000      -0.699455       -19.0331
  46   2.0000      -0.689849       -18.7717
  47   2.0000      -0.678589       -18.4653
  48   2.0000      -0.673452       -18.3256
  49   2.0000      -0.656069       -17.8525
  50   2.0000      -0.647872       -17.6295
  51   2.0000      -0.643323       -17.5057
  52   2.0000      -0.630157       -17.1474
  53   2.0000      -0.620026       -16.8718
  54   2.0000      -0.611016       -16.6266
  55   2.0000      -0.603111       -16.4115
  56   2.0000      -0.600616       -16.3436
  57   2.0000      -0.580835       -15.8053
  58   2.0000      -0.571919       -15.5627
  59   2.0000      -0.565964       -15.4007
  60   2.0000      -0.557766       -15.1776
  61   2.0000      -0.540377       -14.7044
  62   2.0000      -0.533227       -14.5099
  63   2.0000      -0.528681       -14.3861
  64   2.0000      -0.520496       -14.1634
  65   2.0000      -0.515501       -14.0275
  66   2.0000      -0.504413       -13.7258
  67   2.0000      -0.497585       -13.5400
  68   2.0000      -0.488128       -13.2826
  69   2.0000      -0.464677       -12.6445
  70   2.0000      -0.456567       -12.4238
  71   2.0000      -0.445470       -12.1218
  72   2.0000      -0.355933        -9.6854
  73   2.0000      -0.353413        -9.6168
  74   2.0000      -0.329957        -8.9786
  75   2.0000      -0.325740        -8.8638
  76   2.0000      -0.317443        -8.6381
  77   0.0000       0.070765         1.9256
  78   0.0000       0.102381         2.7859
  79   0.0000       0.123170         3.3516
  80   0.0000       0.129035         3.5112
  81   0.0000       0.134086         3.6487

MULLIKEN ATOMIC CHARGES
-----------------------
   0 C :   -0.263213
   1 C :    0.007473
   2 O :   -0.380925
   3 C :    0.504992
   4 O :   -0.417654
   5 C :   -0.277500
   6 C :    0.161994
   7 C :   -0.269284
   8 N :   -0.123970
   9 C :    0.212830
  10 S :   -0.438562
  11 N :   -0.204712
  12 C :    0.063184
  13 C :    0.019112
  14 C :   -0.165646
  15 C :   -0.134574
  16 C :   -0.275915
  17 C :    0.306777
  18 O :   -0.356040
  19 C :   -0.243173
  20 H :    0.087819
  21 H :    0.088823
  22 H :    0.103085
  23 H :    0.124184
  24 H :    0.114599
  25 H :    0.131661
  26 H :    0.131527
  27 H :    0.095175
  28 H :    0.198010
  29 H :    0.194399
  30 H :    0.149236
  31 H :    0.151238
  32 H :    0.163137
  33 H :    0.133005
  34 H :    0.241483
  35 H :    0.167425
Sum of atomic charges:    0.0000000

LOEWDIN ATOMIC CHARGES
----------------------
   0 C :    0.107995
   1 C :   -0.017032
   2 O :    0.296468
   3 C :   -0.416557
   4 O :    0.110258
   5 C :   -0.097925
   6 C :   -0.058362
   7 C :    0.131466
   8 N :    0.406904
   9 C :   -0.456359
  10 S :   -0.034179
  11 N :    0.396238
  12 C :   -0.052730
  13 C :   -0.038411
  14 C :    0.014580
  15 C :    0.040662
  16 C :   -0.002425
  17 C :   -0.190435
  18 O :    0.396563
  19 C :    0.030472
  20 H :   -0.025820
  21 H :   -0.031597
  22 H :   -0.024727
  23 H :   -0.028708
  24 H :   -0.031928
  25 H :   -0.004756
  26 H :   -0.003650
  27 H :   -0.023252
  28 H :   -0.057365
  29 H :   -0.064878
  30 H :   -0.008930
  31 H :   -0.029943
  32 H :   -0.020227
  33 H :   -0.034709
  34 H :   -0.152967
  35 H :   -0.023735

  Mayer bond orders larger than 0.100000
B(  0-C ,  1-C ) :   0.9792 B(  0-C , 20-H ) :   0.9765 B(  0-C , 21-H ) :   0.9792
B(  0-C , 22-H ) :   0.9786 B(  1-C ,  2-O ) :   0.8715 B(  1-C , 23-H ) :   0.9767
B(  1-C , 24-H ) :   0.9651 B(  2-O ,  3-C ) :   1.1171 B(  3-C ,  4-O ) :   2.0039
B(  3-C ,  5-C ) :   1.0703 B(  5-C ,  6-C ) :   1.6496 B(  5-C , 12-C ) :   0.9714
B(  6-C ,  7-C ) :   0.9667 B(  6-C ,  8-N ) :   1.1600 B(  7-C , 25-H ) :   0.9600
B(  7-C , 26-H ) :   0.9602 B(  7-C , 27-H ) :   0.9903 B(  8-N ,  9-C ) :   1.1821
B(  8-N , 28-H ) :   0.9477 B(  9-C , 10-S ) :   1.6083 B(  9-C , 11-N ) :   1.3058
B( 11-N , 12-C ) :   0.9773 B( 11-N , 29-H ) :   0.9525 B( 12-C , 13-C ) :   0.9395
B( 12-C , 30-H ) :   1.0017 B( 13-C , 14-C ) :   1.3573 B( 13-C , 19-C ) :   1.3808
B( 14-C , 15-C ) :   1.3904 B( 14-C , 31-H ) :   0.9732 B( 15-C , 16-C ) :   1.3616
B( 15-C , 32-H ) :   0.9701 B( 16-C , 17-C ) :   1.3294 B( 16-C , 33-H ) :   0.9843
B( 17-C , 18-O ) :   1.1139 B( 17-C , 19-C ) :   1.3741 B( 18-O , 34-H ) :   0.9791
B( 19-C , 35-H ) :   0.9572

MP2 TOTAL ENERGY:    -1274.337507613 Eh
FINAL SINGLE POINT ENERGY     -1274.337507612564

DIPOLE MOMENT
-------------
                                X             Y             Z
Electronic contribution:      9.43000      11.06078       6.41607
Nuclear contribution   :    -10.51644     -12.55900      -6.40519
                        -----------------------------------------
Total Dipole Moment    :     -1.08644      -1.49821       0.01088
                        -----------------------------------------
Magnitude (a.u.)       :      1.85071
Magnitude (Debye)      :      4.70413

Rotational constants in cm-1:     0.012514     0.008576     0.006337
Rotational constants in MHz :   375.172054   257.094029   189.975331

                             ****ORCA TERMINATED NORMALLY****
TOTAL RUN TIME: 0 days 1 hours 46 minutes 2 seconds 489 msec
