                         Program Version 5.0.0 -  RELEASE  -
|  1> ! ri-mp2 cc-pvtz cc-pvtz/c TightSCF NoKeepInts
|  2>
|  3> %scf
|  4>   MaxCore 4096
|  5> end
|  6> *xyz  0  1
|  7>     C       15.0082182   14.1321864   15.9824654
|  8>     C       16.0885287   14.5055021   17.0131667
|  9>     O       17.1933057   15.1029862   16.3086774
| 10>     C       17.1978890   16.4574525   16.1451154
| 11>     O       16.6135812   16.9514100   15.1984103
| 12>     C       17.6405958   17.2323764   17.3596641
| 13>     C       17.3683730   18.5544096   17.5136819
| 14>     C       16.5089013   19.4280863   16.6252399
| 15>     N       17.9547768   19.2707176   18.5621711
| 16>     C       18.9885773   18.8074056   19.3326213
| 17>     S       19.7769924   19.7748885   20.4177360
| 18>     N       19.3472165   17.4966951   19.1430803
| 19>     C       18.5553663   16.5200258   18.3736638
| 20>     C       17.8084254   15.6214708   19.3534956
| 21>     C       18.2166684   14.2874610   19.5422187
| 22>     C       17.5354951   13.4519028   20.4432241
| 23>     C       16.4425346   13.9559422   21.1684862
| 24>     C       16.0427498   15.2878442   20.9950541
| 25>     O       14.9894363   15.7787849   21.6946682
| 26>     C       16.7207179   16.1165029   20.0957734
| 27>     H       14.6204566   15.0282827   15.4814812
| 28>     H       14.1686191   13.6235317   16.4712027
| 29>     H       15.4192273   13.4616457   15.2175294
| 30>     H       15.6684414   15.1867935   17.7638873
| 31>     H       16.4246461   13.5916820   17.5193620
| 32>     H       15.5238215   18.9707985   16.4676660
| 33>     H       16.9742745   19.5485321   15.6383924
| 34>     H       16.3427401   20.4291049   17.0401709
| 35>     H       17.7152896   20.2401330   18.6974561
| 36>     H       20.0994426   17.1759665   19.7391973
| 37>     H       19.2584558   15.8968007   17.8027858
| 38>     H       19.0619582   13.8940380   18.9831985
| 39>     H       17.8570951   12.4205370   20.5800351
| 40>     H       15.9144422   13.3146400   21.8668580
| 41>     H       14.6991052   15.0886341   22.3102987
| 42>     H       16.4006350   17.1468287   19.9858647
| 43> *
| 44>
| 45>                          ****END OF INPUT****

CARTESIAN COORDINATES (ANGSTROEM)
---------------------------------
  C     15.008218   14.132186   15.982465
  C     16.088529   14.505502   17.013167
  O     17.193306   15.102986   16.308677
  C     17.197889   16.457452   16.145115
  O     16.613581   16.951410   15.198410
  C     17.640596   17.232376   17.359664
  C     17.368373   18.554410   17.513682
  C     16.508901   19.428086   16.625240
  N     17.954777   19.270718   18.562171
  C     18.988577   18.807406   19.332621
  S     19.776992   19.774888   20.417736
  N     19.347216   17.496695   19.143080
  C     18.555366   16.520026   18.373664
  C     17.808425   15.621471   19.353496
  C     18.216668   14.287461   19.542219
  C     17.535495   13.451903   20.443224
  C     16.442535   13.955942   21.168486
  C     16.042750   15.287844   20.995054
  O     14.989436   15.778785   21.694668
  C     16.720718   16.116503   20.095773
  H     14.620457   15.028283   15.481481
  H     14.168619   13.623532   16.471203
  H     15.419227   13.461646   15.217529
  H     15.668441   15.186793   17.763887
  H     16.424646   13.591682   17.519362
  H     15.523821   18.970798   16.467666
  H     16.974274   19.548532   15.638392
  H     16.342740   20.429105   17.040171
  H     17.715290   20.240133   18.697456
  H     20.099443   17.175967   19.739197
  H     19.258456   15.896801   17.802786
  H     19.061958   13.894038   18.983198
  H     17.857095   12.420537   20.580035
  H     15.914442   13.314640   21.866858
  H     14.699105   15.088634   22.310299
  H     16.400635   17.146829   19.985865

 Total Charge           Charge          ....    0
 Multiplicity           Mult            ....    1
 Number of Electrons    NEL             ....  154
 Basis Dimension        Dim             ....  828

ORBITAL ENERGIES
----------------

  NO   OCC          E(Eh)            E(eV)
   0   2.0000     -91.891899     -2500.5057
   1   2.0000     -20.602846      -560.6319
   2   2.0000     -20.580737      -560.0303
   3   2.0000     -20.549321      -559.1754
   4   2.0000     -15.632431      -425.3801
   5   2.0000     -15.610741      -424.7899
   6   2.0000     -11.393397      -310.0301
   7   2.0000     -11.386407      -309.8399
   8   2.0000     -11.338847      -308.5457
   9   2.0000     -11.320714      -308.0523
  10   2.0000     -11.313832      -307.8650
  11   2.0000     -11.295071      -307.3545
  12   2.0000     -11.265334      -306.5453
  13   2.0000     -11.261967      -306.4537
  14   2.0000     -11.260518      -306.4143
  15   2.0000     -11.254623      -306.2539
  16   2.0000     -11.249911      -306.1256
  17   2.0000     -11.244350      -305.9743
  18   2.0000     -11.244078      -305.9669
  19   2.0000     -11.217648      -305.2477
  20   2.0000      -8.896911      -242.0973
  21   2.0000      -6.578473      -179.0093
  22   2.0000      -6.576482      -178.9552
  23   2.0000      -6.575883      -178.9389
  24   2.0000      -1.447180       -39.3798
  25   2.0000      -1.422541       -38.7093
  26   2.0000      -1.353611       -36.8336
  27   2.0000      -1.343610       -36.5615
  28   2.0000      -1.241930       -33.7946
  29   2.0000      -1.163419       -31.6582
  30   2.0000      -1.122305       -30.5395
  31   2.0000      -1.047494       -28.5038
  32   2.0000      -1.029638       -28.0179
  33   2.0000      -1.021922       -27.8079
  34   2.0000      -0.999236       -27.1906
  35   2.0000      -0.986987       -26.8573
  36   2.0000      -0.926810       -25.2198
  37   2.0000      -0.880598       -23.9623
  38   2.0000      -0.851062       -23.1586
  39   2.0000      -0.845257       -23.0006
  40   2.0000      -0.840178       -22.8624
  41   2.0000      -0.831011       -22.6129
  42   2.0000      -0.756016       -20.5723
  43   2.0000      -0.736423       -20.0391
  44   2.0000      -0.719642       -19.5825
  45   2.0000      -0.702140       -19.1062
  46   2.0000      -0.693069       -18.8594
  47   2.0000      -0.679942       -18.5022
  48   2.0000      -0.669393       -18.2151
  49   2.0000      -0.664375       -18.0786
  50   2.0000      -0.650822       -17.7098
  51   2.0000      -0.649216       -17.6661
  52   2.0000      -0.640001       -17.4153
  53   2.0000      -0.613470       -16.6934
  54   2.0000      -0.606953       -16.5160
  55   2.0000      -0.602574       -16.3969
  56   2.0000      -0.588249       -16.0071
  57   2.0000      -0.582405       -15.8481
  58   2.0000      -0.576969       -15.7001
  59   2.0000      -0.573676       -15.6105
  60   2.0000      -0.564197       -15.3526
  61   2.0000      -0.542734       -14.7685
  62   2.0000      -0.537455       -14.6249
  63   2.0000      -0.530473       -14.4349
  64   2.0000      -0.518547       -14.1104
  65   2.0000      -0.514119       -13.9899
  66   2.0000      -0.506409       -13.7801
  67   2.0000      -0.498634       -13.5685
  68   2.0000      -0.483328       -13.1520
  69   2.0000      -0.465854       -12.6765
  70   2.0000      -0.453474       -12.3396
  71   2.0000      -0.442820       -12.0497
  72   2.0000      -0.359359        -9.7786
  73   2.0000      -0.355009        -9.6603
  74   2.0000      -0.331877        -9.0308
  75   2.0000      -0.327879        -8.9220
  76   2.0000      -0.318921        -8.6783
  77   0.0000       0.068405         1.8614
  78   0.0000       0.098636         2.6840
  79   0.0000       0.120806         3.2873
  80   0.0000       0.127310         3.4643
  81   0.0000       0.131049         3.5660

MULLIKEN ATOMIC CHARGES
-----------------------
   0 C :   -0.260599
   1 C :    0.021798
   2 O :   -0.380193
   3 C :    0.497095
   4 O :   -0.397807
   5 C :   -0.280843
   6 C :    0.155631
   7 C :   -0.270658
   8 N :   -0.125453
   9 C :    0.211029
  10 S :   -0.434150
  11 N :   -0.196649
  12 C :    0.042058
  13 C :    0.062257
  14 C :   -0.202776
  15 C :   -0.126672
  16 C :   -0.274192
  17 C :    0.315132
  18 O :   -0.355907
  19 C :   -0.264399
  20 H :    0.104525
  21 H :    0.086248
  22 H :    0.096939
  23 H :    0.101028
  24 H :    0.111384
  25 H :    0.126980
  26 H :    0.137424
  27 H :    0.094485
  28 H :    0.198858
  29 H :    0.192080
  30 H :    0.150837
  31 H :    0.150885
  32 H :    0.166211
  33 H :    0.133954
  34 H :    0.242148
  35 H :    0.171310
Sum of atomic charges:   -0.0000000

LOEWDIN ATOMIC CHARGES
----------------------
   0 C :    0.105988
   1 C :   -0.023111
   2 O :    0.285962
   3 C :   -0.421957
   4 O :    0.124842
   5 C :   -0.100466
   6 C :   -0.058892
   7 C :    0.130738
   8 N :    0.407076
   9 C :   -0.456814
  10 S :   -0.030893
  11 N :    0.396286
  12 C :   -0.052703
  13 C :   -0.038048
  14 C :    0.015132
  15 C :    0.042174
  16 C :   -0.000356
  17 C :   -0.190821
  18 O :    0.396566
  19 C :    0.031279
  20 H :   -0.026556
  21 H :   -0.030475
  22 H :   -0.026011
  23 H :   -0.033424
  24 H :   -0.024866
  25 H :   -0.005938
  26 H :   -0.002603
  27 H :   -0.023020
  28 H :   -0.057251
  29 H :   -0.065303
  30 H :   -0.006229
  31 H :   -0.029105
  32 H :   -0.019651
  33 H :   -0.034006
  34 H :   -0.152288
  35 H :   -0.025256

  Mayer bond orders larger than 0.100000
B(  0-C ,  1-C ) :   0.9813 B(  0-C , 20-H ) :   0.9738 B(  0-C , 21-H ) :   0.9772
B(  0-C , 22-H ) :   0.9801 B(  1-C ,  2-O ) :   0.8711 B(  1-C , 23-H ) :   0.9654
B(  1-C , 24-H ) :   0.9782 B(  2-O ,  3-C ) :   1.1057 B(  3-C ,  4-O ) :   2.0284
B(  3-C ,  5-C ) :   1.0466 B(  5-C ,  6-C ) :   1.6542 B(  5-C , 12-C ) :   0.9693
B(  6-C ,  7-C ) :   0.9714 B(  6-C ,  8-N ) :   1.1549 B(  7-C , 25-H ) :   0.9646
B(  7-C , 26-H ) :   0.9558 B(  7-C , 27-H ) :   0.9882 B(  8-N ,  9-C ) :   1.1772
B(  8-N , 28-H ) :   0.9482 B(  9-C , 10-S ) :   1.6158 B(  9-C , 11-N ) :   1.3011
B( 11-N , 12-C ) :   0.9739 B( 11-N , 29-H ) :   0.9540 B( 12-C , 13-C ) :   0.9532
B( 12-C , 30-H ) :   1.0013 B( 13-C , 14-C ) :   1.3443 B( 13-C , 19-C ) :   1.3623
B( 14-C , 15-C ) :   1.3839 B( 14-C , 31-H ) :   0.9773 B( 15-C , 16-C ) :   1.3685
B( 15-C , 32-H ) :   0.9685 B( 16-C , 17-C ) :   1.3261 B( 16-C , 33-H ) :   0.9834
B( 17-C , 18-O ) :   1.1150 B( 17-C , 19-C ) :   1.3742 B( 18-O , 34-H ) :   0.9788
B( 19-C , 35-H ) :   0.9567

MP2 TOTAL ENERGY:    -1274.328650892 Eh
FINAL SINGLE POINT ENERGY     -1274.328650891755

DIPOLE MOMENT
-------------
                                X             Y             Z
Electronic contribution:     10.67403       9.21893       6.77302
Nuclear contribution   :    -11.73742     -10.69971      -6.37849
                        -----------------------------------------
Total Dipole Moment    :     -1.06339      -1.48077       0.39453
                        -----------------------------------------
Magnitude (a.u.)       :      1.86524
Magnitude (Debye)      :      4.74107

Rotational constants in cm-1:     0.011702     0.009367     0.006404
Rotational constants in MHz :   350.806388   280.813134   191.975998

                             ****ORCA TERMINATED NORMALLY****
TOTAL RUN TIME: 0 days 2 hours 59 minutes 30 seconds 520 msec
