                         Program Version 5.0.0 -  RELEASE  -
|  1> ! ri-mp2 cc-pvtz cc-pvtz/c TightSCF NoKeepInts
|  2>
|  3> %scf
|  4>   MaxCore 4096
|  5> end
|  6> *xyz  0  1
|  7>     C       15.0750095   14.2816570   16.7991076
|  8>     C       15.6186550   14.9079968   15.4957108
|  9>     O       16.4349365   16.0550888   15.8042961
| 10>     C       17.5677410   15.9086830   16.5527781
| 11>     O       18.1663193   14.8475805   16.6262066
| 12>     C       17.8418636   17.0534733   17.4832886
| 13>     C       17.3766513   18.3188132   17.3178451
| 14>     C       16.5377638   18.8602778   16.1786765
| 15>     N       17.7271906   19.3128597   18.2372606
| 16>     C       18.6260307   19.1552180   19.2590339
| 17>     S       19.0649069   20.4159079   20.2356239
| 18>     N       19.1429686   17.8961733   19.4307061
| 19>     C       18.7008268   16.6938592   18.6997801
| 20>     C       17.9461133   15.7478618   19.6301448
| 21>     C       18.3605293   14.4113280   19.7779200
| 22>     C       17.6580515   13.5322778   20.6191069
| 23>     C       16.5298331   13.9924181   21.3190984
| 24>     C       16.1115160   15.3218374   21.1718478
| 25>     O       15.0175767   15.7670176   21.8399393
| 26>     C       16.8127987   16.1944241   20.3339769
| 27>     H       15.8792822   13.8393566   17.4006564
| 28>     H       14.3568874   13.4858088   16.5680915
| 29>     H       14.5635322   15.0364823   17.4092308
| 30>     H       16.2036397   14.1623045   14.9401943
| 31>     H       14.7775319   15.2206798   14.8639233
| 32>     H       15.5077499   18.4884341   16.2464883
| 33>     H       16.9465788   18.5472816   15.2098280
| 34>     H       16.4949427   19.9561392   16.1691311
| 35>     H       17.3582822   20.2440862   18.1290606
| 36>     H       19.7788497   17.7995267   20.2118776
| 37>     H       19.5995851   16.1761818   18.3344393
| 38>     H       19.2206689   14.0476410   19.2210505
| 39>     H       17.9853574   12.4990022   20.7194094
| 40>     H       15.9829074   13.3161613   21.9675391
| 41>     H       14.7010263   15.0385611   22.3949059
| 42>     H       16.4728961   17.2195995   20.2358258
| 43> *
| 44>
| 45>                          ****END OF INPUT****

CARTESIAN COORDINATES (ANGSTROEM)
---------------------------------
  C     15.075010   14.281657   16.799108
  C     15.618655   14.907997   15.495711
  O     16.434936   16.055089   15.804296
  C     17.567741   15.908683   16.552778
  O     18.166319   14.847580   16.626207
  C     17.841864   17.053473   17.483289
  C     17.376651   18.318813   17.317845
  C     16.537764   18.860278   16.178677
  N     17.727191   19.312860   18.237261
  C     18.626031   19.155218   19.259034
  S     19.064907   20.415908   20.235624
  N     19.142969   17.896173   19.430706
  C     18.700827   16.693859   18.699780
  C     17.946113   15.747862   19.630145
  C     18.360529   14.411328   19.777920
  C     17.658051   13.532278   20.619107
  C     16.529833   13.992418   21.319098
  C     16.111516   15.321837   21.171848
  O     15.017577   15.767018   21.839939
  C     16.812799   16.194424   20.333977
  H     15.879282   13.839357   17.400656
  H     14.356887   13.485809   16.568092
  H     14.563532   15.036482   17.409231
  H     16.203640   14.162304   14.940194
  H     14.777532   15.220680   14.863923
  H     15.507750   18.488434   16.246488
  H     16.946579   18.547282   15.209828
  H     16.494943   19.956139   16.169131
  H     17.358282   20.244086   18.129061
  H     19.778850   17.799527   20.211878
  H     19.599585   16.176182   18.334439
  H     19.220669   14.047641   19.221051
  H     17.985357   12.499002   20.719409
  H     15.982907   13.316161   21.967539
  H     14.701026   15.038561   22.394906
  H     16.472896   17.219599   20.235826

 Total Charge           Charge          ....    0
 Multiplicity           Mult            ....    1
 Number of Electrons    NEL             ....  154
 Basis Dimension        Dim             ....  828

ORBITAL ENERGIES
----------------

  NO   OCC          E(Eh)            E(eV)
   0   2.0000     -91.888241     -2500.4062
   1   2.0000     -20.598353      -560.5097
   2   2.0000     -20.593477      -560.3770
   3   2.0000     -20.547119      -559.1155
   4   2.0000     -15.628242      -425.2661
   5   2.0000     -15.607325      -424.6969
   6   2.0000     -11.395862      -310.0972
   7   2.0000     -11.383400      -309.7581
   8   2.0000     -11.335363      -308.4509
   9   2.0000     -11.309457      -307.7460
  10   2.0000     -11.306555      -307.6670
  11   2.0000     -11.300545      -307.5035
  12   2.0000     -11.260051      -306.4016
  13   2.0000     -11.258729      -306.3656
  14   2.0000     -11.255059      -306.2657
  15   2.0000     -11.249669      -306.1191
  16   2.0000     -11.239313      -305.8373
  17   2.0000     -11.235233      -305.7262
  18   2.0000     -11.232393      -305.6490
  19   2.0000     -11.224538      -305.4352
  20   2.0000      -8.893307      -241.9992
  21   2.0000      -6.574885      -178.9117
  22   2.0000      -6.572877      -178.8571
  23   2.0000      -6.572293      -178.8412
  24   2.0000      -1.452172       -39.5156
  25   2.0000      -1.413232       -38.4560
  26   2.0000      -1.356350       -36.9082
  27   2.0000      -1.339285       -36.4438
  28   2.0000      -1.237247       -33.6672
  29   2.0000      -1.154005       -31.4021
  30   2.0000      -1.120244       -30.4834
  31   2.0000      -1.042583       -28.3701
  32   2.0000      -1.032345       -28.0915
  33   2.0000      -1.011237       -27.5172
  34   2.0000      -0.998074       -27.1590
  35   2.0000      -0.983598       -26.7650
  36   2.0000      -0.922265       -25.0961
  37   2.0000      -0.894589       -24.3430
  38   2.0000      -0.847759       -23.0687
  39   2.0000      -0.836195       -22.7540
  40   2.0000      -0.829755       -22.5788
  41   2.0000      -0.815359       -22.1870
  42   2.0000      -0.750086       -20.4109
  43   2.0000      -0.735536       -20.0149
  44   2.0000      -0.726100       -19.7582
  45   2.0000      -0.691929       -18.8284
  46   2.0000      -0.685621       -18.6567
  47   2.0000      -0.678264       -18.4565
  48   2.0000      -0.671897       -18.2833
  49   2.0000      -0.656263       -17.8578
  50   2.0000      -0.653282       -17.7767
  51   2.0000      -0.644898       -17.5486
  52   2.0000      -0.632618       -17.2144
  53   2.0000      -0.613689       -16.6993
  54   2.0000      -0.601448       -16.3662
  55   2.0000      -0.601050       -16.3554
  56   2.0000      -0.596914       -16.2429
  57   2.0000      -0.579109       -15.7583
  58   2.0000      -0.574962       -15.6455
  59   2.0000      -0.563633       -15.3372
  60   2.0000      -0.555752       -15.1228
  61   2.0000      -0.546789       -14.8789
  62   2.0000      -0.535074       -14.5601
  63   2.0000      -0.529583       -14.4107
  64   2.0000      -0.518394       -14.1062
  65   2.0000      -0.509649       -13.8683
  66   2.0000      -0.498240       -13.5578
  67   2.0000      -0.494492       -13.4558
  68   2.0000      -0.481653       -13.1065
  69   2.0000      -0.463940       -12.6245
  70   2.0000      -0.459381       -12.5004
  71   2.0000      -0.450563       -12.2604
  72   2.0000      -0.353973        -9.6321
  73   2.0000      -0.345729        -9.4078
  74   2.0000      -0.327455        -8.9105
  75   2.0000      -0.316732        -8.6187
  76   2.0000      -0.315017        -8.5720
  77   0.0000       0.075347         2.0503
  78   0.0000       0.109996         2.9931
  79   0.0000       0.120533         3.2799
  80   0.0000       0.134204         3.6519
  81   0.0000       0.142895         3.8884

MULLIKEN ATOMIC CHARGES
-----------------------
   0 C :   -0.309627
   1 C :    0.037845
   2 O :   -0.360949
   3 C :    0.438867
   4 O :   -0.424718
   5 C :   -0.168673
   6 C :    0.143548
   7 C :   -0.282756
   8 N :   -0.123223
   9 C :    0.204276
  10 S :   -0.439826
  11 N :   -0.200727
  12 C :    0.049278
  13 C :    0.050783
  14 C :   -0.165816
  15 C :   -0.133797
  16 C :   -0.280285
  17 C :    0.314122
  18 O :   -0.359246
  19 C :   -0.275056
  20 H :    0.128070
  21 H :    0.098703
  22 H :    0.096269
  23 H :    0.106054
  24 H :    0.107290
  25 H :    0.126058
  26 H :    0.126414
  27 H :    0.101699
  28 H :    0.196941
  29 H :    0.194306
  30 H :    0.153446
  31 H :    0.154722
  32 H :    0.160443
  33 H :    0.129260
  34 H :    0.240371
  35 H :    0.165931
Sum of atomic charges:    0.0000000

LOEWDIN ATOMIC CHARGES
----------------------
   0 C :    0.106203
   1 C :   -0.016608
   2 O :    0.299383
   3 C :   -0.414399
   4 O :    0.108071
   5 C :   -0.091425
   6 C :   -0.068138
   7 C :    0.125557
   8 N :    0.404595
   9 C :   -0.457934
  10 S :   -0.036298
  11 N :    0.397688
  12 C :   -0.045956
  13 C :   -0.039846
  14 C :    0.021696
  15 C :    0.040421
  16 C :   -0.002222
  17 C :   -0.192731
  18 O :    0.393341
  19 C :    0.029237
  20 H :   -0.023160
  21 H :   -0.026590
  22 H :   -0.029077
  23 H :   -0.028326
  24 H :   -0.025396
  25 H :   -0.009985
  26 H :   -0.007980
  27 H :   -0.020777
  28 H :   -0.058988
  29 H :   -0.063772
  30 H :   -0.005143
  31 H :   -0.025139
  32 H :   -0.020948
  33 H :   -0.036068
  34 H :   -0.154594
  35 H :   -0.024693

  Mayer bond orders larger than 0.100000
B(  0-C ,  1-C ) :   0.9603 B(  0-C , 20-H ) :   0.9698 B(  0-C , 21-H ) :   0.9765
B(  0-C , 22-H ) :   0.9755 B(  1-C ,  2-O ) :   0.8960 B(  1-C , 23-H ) :   0.9810
B(  1-C , 24-H ) :   0.9841 B(  2-O ,  3-C ) :   1.1313 B(  3-C ,  4-O ) :   1.9938
B(  3-C ,  5-C ) :   1.0440 B(  5-C ,  6-C ) :   1.6516 B(  5-C , 12-C ) :   0.9658
B(  6-C ,  7-C ) :   0.9543 B(  6-C ,  8-N ) :   1.1464 B(  7-C , 25-H ) :   0.9632
B(  7-C , 26-H ) :   0.9671 B(  7-C , 27-H ) :   0.9903 B(  8-N ,  9-C ) :   1.1812
B(  8-N , 28-H ) :   0.9490 B(  9-C , 10-S ) :   1.6100 B(  9-C , 11-N ) :   1.3031
B( 11-N , 12-C ) :   0.9926 B( 11-N , 29-H ) :   0.9516 B( 12-C , 13-C ) :   0.9434
B( 12-C , 30-H ) :   0.9995 B( 13-C , 14-C ) :   1.3754 B( 13-C , 19-C ) :   1.3703
B( 14-C , 15-C ) :   1.3933 B( 14-C , 31-H ) :   0.9647 B( 15-C , 16-C ) :   1.3623
B( 15-C , 32-H ) :   0.9711 B( 16-C , 17-C ) :   1.3317 B( 16-C , 33-H ) :   0.9855
B( 17-C , 18-O ) :   1.1083 B( 17-C , 19-C ) :   1.3758 B( 18-O , 34-H ) :   0.9803
B( 19-C , 35-H ) :   0.9580

MP2 TOTAL ENERGY:    -1274.344842073 Eh
FINAL SINGLE POINT ENERGY     -1274.344842073027

DIPOLE MOMENT
-------------
                                X             Y             Z
Electronic contribution:     10.12294       9.83747       7.74677
Nuclear contribution   :    -11.57679     -11.11156      -8.70716
                        -----------------------------------------
Total Dipole Moment    :     -1.45385      -1.27409      -0.96039
                        -----------------------------------------
Magnitude (a.u.)       :      2.15855
Magnitude (Debye)      :      5.48660

Rotational constants in cm-1:     0.011510     0.009228     0.006366
Rotational constants in MHz :   345.069143   276.653620   190.845161

                             ****ORCA TERMINATED NORMALLY****
TOTAL RUN TIME: 0 days 1 hours 53 minutes 29 seconds 426 msec
