                         Program Version 4.2.0 -  RELEASE  -
|  1> ! ri-mp2 cc-pvtz cc-pvtz/c TightSCF  NoKeepInts
|  2>
|  3> %scf
|  4>   MaxCore 4096
|  5> end
|  6> *xyz  0  1
|  7>     C       15.4753994   14.1678271   14.8804852
|  8>     C       15.6851203   14.0665408   16.4074241
|  9>     O       16.6230724   15.0579713   16.8754983
| 10>     C       16.3784841   16.4031813   16.7882592
| 11>     O       15.3996770   16.8657801   16.2285307
| 12>     C       17.3455179   17.2146975   17.6070033
| 13>     C       17.3106927   18.5714338   17.6420421
| 14>     C       16.3476260   19.4841703   16.9131723
| 15>     N       18.2630979   19.2785608   18.3822514
| 16>     C       19.3414928   18.7165705   19.0117002
| 17>     S       20.4838986   19.6348174   19.7783301
| 18>     N       19.4292952   17.3485783   18.9701212
| 19>     C       18.3944408   16.4479788   18.4299689
| 20>     C       17.7576087   15.6558008   19.5685287
| 21>     C       17.9557815   14.2657554   19.6684897
| 22>     C       17.3708311   13.5334606   20.7153247
| 23>     C       16.5834579   14.1964367   21.6721241
| 24>     C       16.3875726   15.5811519   21.5781290
| 25>     O       15.6291138   16.2242977   22.5012799
| 26>     C       16.9708950   16.3071691   20.5352087
| 27>     H       14.8795598   15.0467136   14.6077153
| 28>     H       14.9408113   13.2835579   14.5133136
| 29>     H       16.4386217   14.2237222   14.3587280
| 30>     H       14.7221977   14.1854840   16.9221274
| 31>     H       16.0748530   13.0695053   16.6491428
| 32>     H       15.3180753   19.3010577   17.2467424
| 33>     H       16.3793533   19.2960887   15.8325039
| 34>     H       16.5623467   20.5477799   17.0693610
| 35>     H       18.2149707   20.2840919   18.4222850
| 36>     H       20.2150226   16.9608865   19.4761856
| 37>     H       18.8977730   15.7420864   17.7545188
| 38>     H       18.5603929   13.7501625   18.9272881
| 39>     H       17.5283912   12.4584974   20.7829912
| 40>     H       16.1299119   13.6355114   22.4826066
| 41>     H       15.3385567   15.5656086   23.1496641
| 42>     H       16.8130865   17.3790658   20.4849542
| 43> *
| 44>
| 45>                          ****END OF INPUT****

CARTESIAN COORDINATES (ANGSTROEM)
---------------------------------
  C     15.475399   14.167827   14.880485
  C     15.685120   14.066541   16.407424
  O     16.623072   15.057971   16.875498
  C     16.378484   16.403181   16.788259
  O     15.399677   16.865780   16.228531
  C     17.345518   17.214697   17.607003
  C     17.310693   18.571434   17.642042
  C     16.347626   19.484170   16.913172
  N     18.263098   19.278561   18.382251
  C     19.341493   18.716570   19.011700
  S     20.483899   19.634817   19.778330
  N     19.429295   17.348578   18.970121
  C     18.394441   16.447979   18.429969
  C     17.757609   15.655801   19.568529
  C     17.955782   14.265755   19.668490
  C     17.370831   13.533461   20.715325
  C     16.583458   14.196437   21.672124
  C     16.387573   15.581152   21.578129
  O     15.629114   16.224298   22.501280
  C     16.970895   16.307169   20.535209
  H     14.879560   15.046714   14.607715
  H     14.940811   13.283558   14.513314
  H     16.438622   14.223722   14.358728
  H     14.722198   14.185484   16.922127
  H     16.074853   13.069505   16.649143
  H     15.318075   19.301058   17.246742
  H     16.379353   19.296089   15.832504
  H     16.562347   20.547780   17.069361
  H     18.214971   20.284092   18.422285
  H     20.215023   16.960887   19.476186
  H     18.897773   15.742086   17.754519
  H     18.560393   13.750162   18.927288
  H     17.528391   12.458497   20.782991
  H     16.129912   13.635511   22.482607
  H     15.338557   15.565609   23.149664
  H     16.813087   17.379066   20.484954

 Total Charge           Charge          ....    0
 Multiplicity           Mult            ....    1
 Number of Electrons    NEL             ....  154
 Basis Dimension        Dim             ....  828

ORBITAL ENERGIES
----------------

  NO   OCC          E(Eh)            E(eV)
   0   2.0000     -91.888268     -2500.4069
   1   2.0000     -20.600885      -560.5786
   2   2.0000     -20.595088      -560.4208
   3   2.0000     -20.542120      -558.9795
   4   2.0000     -15.628470      -425.2723
   5   2.0000     -15.607459      -424.7006
   6   2.0000     -11.396530      -310.1154
   7   2.0000     -11.383290      -309.7551
   8   2.0000     -11.335282      -308.4487
   9   2.0000     -11.312067      -307.8170
  10   2.0000     -11.308072      -307.7083
  11   2.0000     -11.300554      -307.5037
  12   2.0000     -11.258689      -306.3645
  13   2.0000     -11.258068      -306.3476
  14   2.0000     -11.253583      -306.2255
  15   2.0000     -11.251702      -306.1744
  16   2.0000     -11.241338      -305.8924
  17   2.0000     -11.236770      -305.7681
  18   2.0000     -11.236608      -305.7636
  19   2.0000     -11.222216      -305.3720
  20   2.0000      -8.893332      -241.9999
  21   2.0000      -6.574908      -178.9123
  22   2.0000      -6.572903      -178.8578
  23   2.0000      -6.572317      -178.8418
  24   2.0000      -1.449042       -39.4304
  25   2.0000      -1.414727       -38.4967
  26   2.0000      -1.355354       -36.8811
  27   2.0000      -1.339445       -36.4481
  28   2.0000      -1.237785       -33.6818
  29   2.0000      -1.156021       -31.4569
  30   2.0000      -1.119424       -30.4611
  31   2.0000      -1.041580       -28.3428
  32   2.0000      -1.035799       -28.1855
  33   2.0000      -1.013405       -27.5761
  34   2.0000      -0.994559       -27.0633
  35   2.0000      -0.983111       -26.7518
  36   2.0000      -0.921583       -25.0775
  37   2.0000      -0.895589       -24.3702
  38   2.0000      -0.846541       -23.0356
  39   2.0000      -0.836686       -22.7674
  40   2.0000      -0.832460       -22.6524
  41   2.0000      -0.818035       -22.2599
  42   2.0000      -0.752641       -20.4804
  43   2.0000      -0.730352       -19.8739
  44   2.0000      -0.721556       -19.6345
  45   2.0000      -0.694399       -18.8956
  46   2.0000      -0.687687       -18.7129
  47   2.0000      -0.680313       -18.5122
  48   2.0000      -0.669594       -18.2206
  49   2.0000      -0.652297       -17.7499
  50   2.0000      -0.649934       -17.6856
  51   2.0000      -0.644649       -17.5418
  52   2.0000      -0.632014       -17.1980
  53   2.0000      -0.609845       -16.5947
  54   2.0000      -0.605204       -16.4684
  55   2.0000      -0.598378       -16.2827
  56   2.0000      -0.597506       -16.2590
  57   2.0000      -0.579534       -15.7699
  58   2.0000      -0.572248       -15.5717
  59   2.0000      -0.570304       -15.5187
  60   2.0000      -0.562053       -15.2943
  61   2.0000      -0.538342       -14.6490
  62   2.0000      -0.536676       -14.6037
  63   2.0000      -0.523952       -14.2575
  64   2.0000      -0.522369       -14.2144
  65   2.0000      -0.512646       -13.9498
  66   2.0000      -0.501567       -13.6483
  67   2.0000      -0.498700       -13.5703
  68   2.0000      -0.484011       -13.1706
  69   2.0000      -0.463394       -12.6096
  70   2.0000      -0.456080       -12.4106
  71   2.0000      -0.443401       -12.0655
  72   2.0000      -0.353693        -9.6245
  73   2.0000      -0.347875        -9.4662
  74   2.0000      -0.327576        -8.9138
  75   2.0000      -0.319726        -8.7002
  76   2.0000      -0.315225        -8.5777
  77   0.0000       0.076763         2.0888
  78   0.0000       0.108801         2.9606
  79   0.0000       0.125125         3.4048
  80   0.0000       0.133357         3.6288
  81   0.0000       0.137409         3.7391

MULLIKEN ATOMIC CHARGES
-----------------------
   0 C :   -0.299215
   1 C :    0.046070
   2 O :   -0.354127
   3 C :    0.468671
   4 O :   -0.437573
   5 C :   -0.208377
   6 C :    0.147017
   7 C :   -0.275097
   8 N :   -0.119841
   9 C :    0.211312
  10 S :   -0.440653
  11 N :   -0.203074
  12 C :    0.047420
  13 C :    0.073173
  14 C :   -0.182343
  15 C :   -0.131573
  16 C :   -0.278435
  17 C :    0.315419
  18 O :   -0.356938
  19 C :   -0.269515
  20 H :    0.127276
  21 H :    0.094937
  22 H :    0.090697
  23 H :    0.092229
  24 H :    0.104879
  25 H :    0.132845
  26 H :    0.129247
  27 H :    0.095305
  28 H :    0.197118
  29 H :    0.194147
  30 H :    0.149191
  31 H :    0.146993
  32 H :    0.159105
  33 H :    0.129053
  34 H :    0.240481
  35 H :    0.164180
Sum of atomic charges:    0.0000000

LOEWDIN ATOMIC CHARGES
----------------------
   0 C :    0.104623
   1 C :   -0.012363
   2 O :    0.302663
   3 C :   -0.411889
   4 O :    0.101041
   5 C :   -0.093274
   6 C :   -0.059305
   7 C :    0.131000
   8 N :    0.406435
   9 C :   -0.456707
  10 S :   -0.036007
  11 N :    0.396467
  12 C :   -0.052749
  13 C :   -0.037973
  14 C :    0.013836
  15 C :    0.038921
  16 C :   -0.001887
  17 C :   -0.189417
  18 O :    0.394982
  19 C :    0.031473
  20 H :   -0.026271
  21 H :   -0.028335
  22 H :   -0.029806
  23 H :   -0.027987
  24 H :   -0.024840
  25 H :   -0.004584
  26 H :   -0.004517
  27 H :   -0.023462
  28 H :   -0.057696
  29 H :   -0.064701
  30 H :   -0.011184
  31 H :   -0.030719
  32 H :   -0.021720
  33 H :   -0.035873
  34 H :   -0.154159
  35 H :   -0.024017

  Mayer bond orders larger than 0.100000
B(  0-C ,  1-C ) :   0.9706 B(  0-C , 20-H ) :   0.9715 B(  0-C , 21-H ) :   0.9780
B(  0-C , 22-H ) :   0.9755 B(  1-C ,  2-O ) :   0.9012 B(  1-C , 23-H ) :   0.9765
B(  1-C , 24-H ) :   0.9838 B(  2-O ,  3-C ) :   1.1617 B(  3-C ,  4-O ) :   1.9535
B(  3-C ,  5-C ) :   1.0605 B(  5-C ,  6-C ) :   1.6570 B(  5-C , 12-C ) :   0.9738
B(  6-C ,  7-C ) :   0.9677 B(  6-C ,  8-N ) :   1.1641 B(  7-C , 25-H ) :   0.9601
B(  7-C , 26-H ) :   0.9606 B(  7-C , 27-H ) :   0.9909 B(  8-N ,  9-C ) :   1.1825
B(  8-N , 28-H ) :   0.9481 B(  9-C , 10-S ) :   1.6068 B(  9-C , 11-N ) :   1.3053
B( 11-N , 12-C ) :   0.9868 B( 11-N , 29-H ) :   0.9518 B( 12-C , 13-C ) :   0.9375
B( 12-C , 30-H ) :   1.0026 B( 13-C , 14-C ) :   1.3550 B( 13-C , 19-C ) :   1.3829
B( 14-C , 15-C ) :   1.3929 B( 14-C , 31-H ) :   0.9721 B( 15-C , 16-C ) :   1.3645
B( 15-C , 32-H ) :   0.9710 B( 16-C , 17-C ) :   1.3318 B( 16-C , 33-H ) :   0.9853
B( 17-C , 18-O ) :   1.1098 B( 17-C , 19-C ) :   1.3737 B( 18-O , 34-H ) :   0.9801
B( 19-C , 35-H ) :   0.9583

MP2 TOTAL ENERGY:    -1274.346715892 Eh
FINAL SINGLE POINT ENERGY     -1274.346715892320

DIPOLE MOMENT
-------------
                                X             Y             Z
Electronic contribution:      9.89367       9.35347      10.10350
Nuclear contribution   :    -11.00549     -11.03089     -10.46357
                        -----------------------------------------
Total Dipole Moment    :     -1.11182      -1.67742      -0.36007
                        -----------------------------------------
Magnitude (a.u.)       :      2.04439
Magnitude (Debye)      :      5.19642

Rotational constants in cm-1:     0.010877     0.008864     0.006010
Rotational constants in MHz :   326.077647   265.749466   180.186773

                             ****ORCA TERMINATED NORMALLY****
TOTAL RUN TIME: 0 days 1 hours 44 minutes 25 seconds 895 msec
