                         Program Version 4.2.0 -  RELEASE  -
|  1> ! ri-mp2 cc-pvtz cc-pvtz/c TightSCF  NoKeepInts
|  2>
|  3> %scf
|  4>   MaxCore 4096
|  5> end
|  6> *xyz  0  1
|  7>     C       14.8947404   14.7180913   16.0682381
|  8>     C       16.0735237   14.5336619   17.0431846
|  9>     O       17.2933909   14.9333548   16.3834850
| 10>     C       17.5221250   16.2553103   16.1310826
| 11>     O       17.2744180   16.7097917   15.0292308
| 12>     C       17.7303610   17.1060808   17.3543414
| 13>     C       17.3437995   18.4058525   17.3984637
| 14>     C       16.5160562   19.1490271   16.3725998
| 15>     N       17.7573082   19.2216464   18.4559123
| 16>     C       18.7422836   18.8875617   19.3481967
| 17>     S       19.3307175   19.9704981   20.4507220
| 18>     N       19.2226128   17.6037223   19.2728478
| 19>     C       18.5997582   16.5233750   18.4846479
| 20>     C       17.8596523   15.5848926   19.4314149
| 21>     C       18.2295481   14.2293675   19.5197786
| 22>     C       17.5491304   13.3574607   20.3861741
| 23>     C       16.4943998   13.8450938   21.1763520
| 24>     C       16.1299610   15.1960812   21.0996584
| 25>     O       15.1106342   15.6697663   21.8589319
| 26>     C       16.8068752   16.0612561   20.2344982
| 27>     H       14.7385083   15.7778188   15.8312859
| 28>     H       13.9685976   14.3284160   16.5076428
| 29>     H       15.0824041   14.1801420   15.1303435
| 30>     H       15.8781637   15.1246389   17.9428750
| 31>     H       16.1441947   13.4772842   17.3328303
| 32>     H       15.6567908   18.5459812   16.0534526
| 33>     H       17.1154586   19.3607790   15.4775678
| 34>     H       16.1252899   20.1011422   16.7502599
| 35>     H       17.4308977   20.1736707   18.5073567
| 36>     H       19.9343380   17.3796389   19.9566903
| 37>     H       19.4110166   15.9534778   18.0096847
| 38>     H       19.0422812   13.8469211   18.9072396
| 39>     H       17.8411657   12.3100240   20.4448519
| 40>     H       15.9668105   13.1752337   21.8477658
| 41>     H       14.8181748   14.9505865   22.4392405
| 42>     H       16.5116115   17.1043528   20.1951523
| 43> *
| 44>
| 45>                          ****END OF INPUT****

CARTESIAN COORDINATES (ANGSTROEM)
---------------------------------
  C     14.894740   14.718091   16.068238
  C     16.073524   14.533662   17.043185
  O     17.293391   14.933355   16.383485
  C     17.522125   16.255310   16.131083
  O     17.274418   16.709792   15.029231
  C     17.730361   17.106081   17.354341
  C     17.343799   18.405853   17.398464
  C     16.516056   19.149027   16.372600
  N     17.757308   19.221646   18.455912
  C     18.742284   18.887562   19.348197
  S     19.330717   19.970498   20.450722
  N     19.222613   17.603722   19.272848
  C     18.599758   16.523375   18.484648
  C     17.859652   15.584893   19.431415
  C     18.229548   14.229367   19.519779
  C     17.549130   13.357461   20.386174
  C     16.494400   13.845094   21.176352
  C     16.129961   15.196081   21.099658
  O     15.110634   15.669766   21.858932
  C     16.806875   16.061256   20.234498
  H     14.738508   15.777819   15.831286
  H     13.968598   14.328416   16.507643
  H     15.082404   14.180142   15.130343
  H     15.878164   15.124639   17.942875
  H     16.144195   13.477284   17.332830
  H     15.656791   18.545981   16.053453
  H     17.115459   19.360779   15.477568
  H     16.125290   20.101142   16.750260
  H     17.430898   20.173671   18.507357
  H     19.934338   17.379639   19.956690
  H     19.411017   15.953478   18.009685
  H     19.042281   13.846921   18.907240
  H     17.841166   12.310024   20.444852
  H     15.966810   13.175234   21.847766
  H     14.818175   14.950587   22.439241
  H     16.511612   17.104353   20.195152

 Total Charge           Charge          ....    0
 Multiplicity           Mult            ....    1
 Number of Electrons    NEL             ....  154
 Basis Dimension        Dim             ....  828

ORBITAL ENERGIES
----------------

  NO   OCC          E(Eh)            E(eV)
   0   2.0000     -91.891987     -2500.5081
   1   2.0000     -20.602440      -560.6209
   2   2.0000     -20.582472      -560.0775
   3   2.0000     -20.551750      -559.2416
   4   2.0000     -15.631460      -425.3537
   5   2.0000     -15.611214      -424.8027
   6   2.0000     -11.393544      -310.0341
   7   2.0000     -11.386701      -309.8479
   8   2.0000     -11.336786      -308.4896
   9   2.0000     -11.320539      -308.0475
  10   2.0000     -11.315687      -307.9155
  11   2.0000     -11.296563      -307.3951
  12   2.0000     -11.265413      -306.5475
  13   2.0000     -11.261604      -306.4438
  14   2.0000     -11.260202      -306.4057
  15   2.0000     -11.255485      -306.2773
  16   2.0000     -11.249779      -306.1220
  17   2.0000     -11.244151      -305.9689
  18   2.0000     -11.243899      -305.9621
  19   2.0000     -11.222588      -305.3821
  20   2.0000      -8.897003      -242.0998
  21   2.0000      -6.578566      -179.0119
  22   2.0000      -6.576573      -178.9576
  23   2.0000      -6.575974      -178.9414
  24   2.0000      -1.446429       -39.3593
  25   2.0000      -1.422181       -38.6995
  26   2.0000      -1.354356       -36.8539
  27   2.0000      -1.343036       -36.5459
  28   2.0000      -1.241757       -33.7899
  29   2.0000      -1.163144       -31.6508
  30   2.0000      -1.122572       -30.5467
  31   2.0000      -1.047808       -28.5123
  32   2.0000      -1.030704       -28.0469
  33   2.0000      -1.021612       -27.7995
  34   2.0000      -1.000604       -27.2278
  35   2.0000      -0.987733       -26.8776
  36   2.0000      -0.927165       -25.2294
  37   2.0000      -0.885651       -24.0998
  38   2.0000      -0.851114       -23.1600
  39   2.0000      -0.845187       -22.9987
  40   2.0000      -0.840257       -22.8645
  41   2.0000      -0.830909       -22.6102
  42   2.0000      -0.753252       -20.4970
  43   2.0000      -0.736227       -20.0338
  44   2.0000      -0.718150       -19.5419
  45   2.0000      -0.701511       -19.0891
  46   2.0000      -0.692370       -18.8404
  47   2.0000      -0.681539       -18.5456
  48   2.0000      -0.669346       -18.2138
  49   2.0000      -0.667866       -18.1736
  50   2.0000      -0.652500       -17.7554
  51   2.0000      -0.649421       -17.6716
  52   2.0000      -0.638531       -17.3753
  53   2.0000      -0.612450       -16.6656
  54   2.0000      -0.609318       -16.5804
  55   2.0000      -0.602790       -16.4028
  56   2.0000      -0.601122       -16.3574
  57   2.0000      -0.582288       -15.8449
  58   2.0000      -0.575395       -15.6573
  59   2.0000      -0.568922       -15.4812
  60   2.0000      -0.557874       -15.1805
  61   2.0000      -0.547350       -14.8942
  62   2.0000      -0.539089       -14.6694
  63   2.0000      -0.529978       -14.4214
  64   2.0000      -0.523036       -14.2325
  65   2.0000      -0.518270       -14.1028
  66   2.0000      -0.506140       -13.7728
  67   2.0000      -0.498375       -13.5615
  68   2.0000      -0.478241       -13.0136
  69   2.0000      -0.468180       -12.7398
  70   2.0000      -0.454321       -12.3627
  71   2.0000      -0.445441       -12.1211
  72   2.0000      -0.359339        -9.7781
  73   2.0000      -0.353936        -9.6311
  74   2.0000      -0.331654        -9.0248
  75   2.0000      -0.328173        -8.9300
  76   2.0000      -0.319292        -8.6884
  77   0.0000       0.070246         1.9115
  78   0.0000       0.099675         2.7123
  79   0.0000       0.120042         3.2665
  80   0.0000       0.127219         3.4618
  81   0.0000       0.130902         3.5620

MULLIKEN ATOMIC CHARGES
-----------------------
   0 C :   -0.267895
   1 C :    0.023933
   2 O :   -0.368037
   3 C :    0.448880
   4 O :   -0.380878
   5 C :   -0.247979
   6 C :    0.153539
   7 C :   -0.272694
   8 N :   -0.125768
   9 C :    0.200031
  10 S :   -0.432302
  11 N :   -0.189456
  12 C :    0.036089
  13 C :    0.032430
  14 C :   -0.158533
  15 C :   -0.141152
  16 C :   -0.272030
  17 C :    0.305040
  18 O :   -0.355100
  19 C :   -0.258954
  20 H :    0.089912
  21 H :    0.094401
  22 H :    0.107591
  23 H :    0.104810
  24 H :    0.114844
  25 H :    0.122646
  26 H :    0.140239
  27 H :    0.095335
  28 H :    0.198340
  29 H :    0.190967
  30 H :    0.149640
  31 H :    0.148674
  32 H :    0.165073
  33 H :    0.134477
  34 H :    0.241606
  35 H :    0.172283
Sum of atomic charges:   -0.0000000

LOEWDIN ATOMIC CHARGES
----------------------
   0 C :    0.106428
   1 C :   -0.020792
   2 O :    0.285245
   3 C :   -0.423116
   4 O :    0.131087
   5 C :   -0.098495
   6 C :   -0.065058
   7 C :    0.130163
   8 N :    0.406088
   9 C :   -0.458146
  10 S :   -0.030604
  11 N :    0.396500
  12 C :   -0.051774
  13 C :   -0.041720
  14 C :    0.017413
  15 C :    0.042743
  16 C :   -0.000471
  17 C :   -0.191547
  18 O :    0.396886
  19 C :    0.030417
  20 H :   -0.031082
  21 H :   -0.028114
  22 H :   -0.022813
  23 H :   -0.037455
  24 H :   -0.022045
  25 H :   -0.008178
  26 H :   -0.002674
  27 H :   -0.022408
  28 H :   -0.057400
  29 H :   -0.064814
  30 H :   -0.006119
  31 H :   -0.028257
  32 H :   -0.019472
  33 H :   -0.034083
  34 H :   -0.152515
  35 H :   -0.023820

  Mayer bond orders larger than 0.100000
B(  0-C ,  1-C ) :   0.9819 B(  0-C , 20-H ) :   0.9736 B(  0-C , 21-H ) :   0.9764
B(  0-C , 22-H ) :   0.9787 B(  1-C ,  2-O ) :   0.8790 B(  1-C , 23-H ) :   0.9606
B(  1-C , 24-H ) :   0.9798 B(  2-O ,  3-C ) :   1.1269 B(  3-C ,  4-O ) :   2.0681
B(  3-C ,  5-C ) :   0.9961 B(  5-C ,  6-C ) :   1.6747 B(  5-C , 12-C ) :   0.9650
B(  6-C ,  7-C ) :   0.9653 B(  6-C ,  8-N ) :   1.1413 B(  7-C , 25-H ) :   0.9697
B(  7-C , 26-H ) :   0.9555 B(  7-C , 27-H ) :   0.9861 B(  8-N ,  9-C ) :   1.1795
B(  8-N , 28-H ) :   0.9492 B(  9-C , 10-S ) :   1.6212 B(  9-C , 11-N ) :   1.2940
B( 11-N , 12-C ) :   0.9907 B( 11-N , 29-H ) :   0.9538 B( 12-C , 13-C ) :   0.9479
B( 12-C , 30-H ) :   1.0060 B( 13-C , 14-C ) :   1.3618 B( 13-C , 19-C ) :   1.3620
B( 14-C , 15-C ) :   1.3872 B( 14-C , 31-H ) :   0.9743 B( 15-C , 16-C ) :   1.3678
B( 15-C , 32-H ) :   0.9696 B( 16-C , 17-C ) :   1.3266 B( 16-C , 33-H ) :   0.9831
B( 17-C , 18-O ) :   1.1157 B( 17-C , 19-C ) :   1.3778 B( 18-O , 34-H ) :   0.9790
B( 19-C , 35-H ) :   0.9565

MP2 TOTAL ENERGY:    -1274.326886116 Eh
FINAL SINGLE POINT ENERGY     -1274.326886116195

DIPOLE MOMENT
-------------
                                X             Y             Z
Electronic contribution:     10.92791       8.09798       7.12940
Nuclear contribution   :    -12.12730      -9.65227      -6.77672
                        -----------------------------------------
Total Dipole Moment    :     -1.19939      -1.55429       0.35268
                        -----------------------------------------
Magnitude (a.u.)       :      1.99468
Magnitude (Debye)      :      5.07007

Rotational constants in cm-1:     0.011369     0.009781     0.006444
Rotational constants in MHz :   340.843312   293.235034   193.191950

                             ****ORCA TERMINATED NORMALLY****
TOTAL RUN TIME: 0 days 1 hours 55 minutes 4 seconds 867 msec
