                         Program Version 5.0.0 -  RELEASE  -
|  1> ! ri-mp2 cc-pvtz cc-pvtz/c TightSCF NoKeepInts
|  2>
|  3> %scf
|  4>   MaxCore 4096
|  5> end
|  6> *xyz  0  1
|  7>     C       14.9537014   14.5270986   16.6618757
|  8>     C       16.4171819   14.0405570   16.7569358
|  9>     O       17.4084490   15.0452947   16.4176464
| 10>     C       17.1170723   16.3742132   16.2716115
| 11>     O       16.3889985   16.7738685   15.3801325
| 12>     C       17.6922488   17.2420709   17.3587495
| 13>     C       17.4810790   18.5829689   17.4031358
| 14>     C       16.6532860   19.4156676   16.4474455
| 15>     N       18.0876606   19.3564780   18.3972192
| 16>     C       19.0149489   18.8938782   19.2917494
| 17>     S       19.7768549   19.8980461   20.3627867
| 18>     N       19.2891470   17.5511905   19.2474970
| 19>     C       18.5579544   16.5630781   18.4344833
| 20>     C       17.7568051   15.6526025   19.3596792
| 21>     C       18.2903573   14.4129697   19.7601528
| 22>     C       17.5623765   13.5612461   20.6079548
| 23>     C       16.2923508   13.9538833   21.0635125
| 24>     C       15.7637023   15.1932343   20.6779890
| 25>     O       14.5390123   15.5767122   21.1176483
| 26>     C       16.4906829   16.0395562   19.8354021
| 27>     H       14.7726916   15.3816895   17.3257537
| 28>     H       14.2692455   13.7237743   16.9595243
| 29>     H       14.7000961   14.8160464   15.6340369
| 30>     H       16.5945435   13.6899235   17.7803491
| 31>     H       16.5494122   13.1750919   16.0950743
| 32>     H       15.6147136   19.0614631   16.4267720
| 33>     H       17.0461981   19.3343911   15.4258167
| 34>     H       16.6339853   20.4797774   16.7102910
| 35>     H       17.9037709   20.3462107   18.4384069
| 36>     H       19.9540129   17.2354370   19.9416654
| 37>     H       19.3053537   15.9485234   17.9126983
| 38>     H       19.2718447   14.1062328   19.4079790
| 39>     H       17.9830227   12.6036505   20.9108301
| 40>     H       15.7263386   13.2996994   21.7187800
| 41>     H       14.2223783   14.8968238   21.7315683
| 42>     H       16.0655224   16.9986506   19.5608470
| 43> *
| 44>
| 45>                          ****END OF INPUT****

CARTESIAN COORDINATES (ANGSTROEM)
---------------------------------
  C     14.953701   14.527099   16.661876
  C     16.417182   14.040557   16.756936
  O     17.408449   15.045295   16.417646
  C     17.117072   16.374213   16.271611
  O     16.388998   16.773868   15.380133
  C     17.692249   17.242071   17.358749
  C     17.481079   18.582969   17.403136
  C     16.653286   19.415668   16.447446
  N     18.087661   19.356478   18.397219
  C     19.014949   18.893878   19.291749
  S     19.776855   19.898046   20.362787
  N     19.289147   17.551191   19.247497
  C     18.557954   16.563078   18.434483
  C     17.756805   15.652602   19.359679
  C     18.290357   14.412970   19.760153
  C     17.562376   13.561246   20.607955
  C     16.292351   13.953883   21.063513
  C     15.763702   15.193234   20.677989
  O     14.539012   15.576712   21.117648
  C     16.490683   16.039556   19.835402
  H     14.772692   15.381689   17.325754
  H     14.269246   13.723774   16.959524
  H     14.700096   14.816046   15.634037
  H     16.594544   13.689924   17.780349
  H     16.549412   13.175092   16.095074
  H     15.614714   19.061463   16.426772
  H     17.046198   19.334391   15.425817
  H     16.633985   20.479777   16.710291
  H     17.903771   20.346211   18.438407
  H     19.954013   17.235437   19.941665
  H     19.305354   15.948523   17.912698
  H     19.271845   14.106233   19.407979
  H     17.983023   12.603651   20.910830
  H     15.726339   13.299699   21.718780
  H     14.222378   14.896824   21.731568
  H     16.065522   16.998651   19.560847

 Total Charge           Charge          ....    0
 Multiplicity           Mult            ....    1
 Number of Electrons    NEL             ....  154
 Basis Dimension        Dim             ....  828

ORBITAL ENERGIES
----------------

  NO   OCC          E(Eh)            E(eV)
   0   2.0000     -91.889852     -2500.4500
   1   2.0000     -20.602873      -560.6327
   2   2.0000     -20.583525      -560.1062
   3   2.0000     -20.543330      -559.0124
   4   2.0000     -15.630227      -425.3201
   5   2.0000     -15.609361      -424.7523
   6   2.0000     -11.393367      -310.0293
   7   2.0000     -11.384844      -309.7974
   8   2.0000     -11.337066      -308.4973
   9   2.0000     -11.320441      -308.0449
  10   2.0000     -11.310832      -307.7834
  11   2.0000     -11.297290      -307.4149
  12   2.0000     -11.265315      -306.5448
  13   2.0000     -11.261820      -306.4497
  14   2.0000     -11.258418      -306.3571
  15   2.0000     -11.252909      -306.2072
  16   2.0000     -11.249035      -306.1018
  17   2.0000     -11.243665      -305.9557
  18   2.0000     -11.243622      -305.9545
  19   2.0000     -11.223294      -305.4014
  20   2.0000      -8.894908      -242.0427
  21   2.0000      -6.576481      -178.9551
  22   2.0000      -6.574477      -178.9006
  23   2.0000      -6.573889      -178.8846
  24   2.0000      -1.440582       -39.2002
  25   2.0000      -1.422477       -38.7076
  26   2.0000      -1.349640       -36.7256
  27   2.0000      -1.341423       -36.5020
  28   2.0000      -1.240191       -33.7473
  29   2.0000      -1.162998       -31.6468
  30   2.0000      -1.121289       -30.5118
  31   2.0000      -1.046407       -28.4742
  32   2.0000      -1.030894       -28.0520
  33   2.0000      -1.021393       -27.7935
  34   2.0000      -0.997905       -27.1544
  35   2.0000      -0.985643       -26.8207
  36   2.0000      -0.925220       -25.1765
  37   2.0000      -0.894229       -24.3332
  38   2.0000      -0.849457       -23.1149
  39   2.0000      -0.842902       -22.9365
  40   2.0000      -0.838882       -22.8272
  41   2.0000      -0.820966       -22.3396
  42   2.0000      -0.744915       -20.2702
  43   2.0000      -0.735137       -20.0041
  44   2.0000      -0.717420       -19.5220
  45   2.0000      -0.701130       -19.0787
  46   2.0000      -0.690283       -18.7836
  47   2.0000      -0.673822       -18.3356
  48   2.0000      -0.669280       -18.2120
  49   2.0000      -0.661097       -17.9894
  50   2.0000      -0.653684       -17.7876
  51   2.0000      -0.645704       -17.5705
  52   2.0000      -0.638749       -17.3813
  53   2.0000      -0.619784       -16.8652
  54   2.0000      -0.613435       -16.6924
  55   2.0000      -0.604491       -16.4490
  56   2.0000      -0.601562       -16.3693
  57   2.0000      -0.582412       -15.8482
  58   2.0000      -0.571969       -15.5641
  59   2.0000      -0.567697       -15.4478
  60   2.0000      -0.548872       -14.9356
  61   2.0000      -0.540189       -14.6993
  62   2.0000      -0.534969       -14.5572
  63   2.0000      -0.530769       -14.4430
  64   2.0000      -0.522921       -14.2294
  65   2.0000      -0.515154       -14.0181
  66   2.0000      -0.504841       -13.7374
  67   2.0000      -0.492445       -13.4001
  68   2.0000      -0.488386       -13.2897
  69   2.0000      -0.462948       -12.5975
  70   2.0000      -0.453380       -12.3371
  71   2.0000      -0.440708       -11.9923
  72   2.0000      -0.356353        -9.6969
  73   2.0000      -0.354755        -9.6534
  74   2.0000      -0.330860        -9.0032
  75   2.0000      -0.326738        -8.8910
  76   2.0000      -0.317672        -8.6443
  77   0.0000       0.072783         1.9805
  78   0.0000       0.100573         2.7367
  79   0.0000       0.121267         3.2998
  80   0.0000       0.128498         3.4966
  81   0.0000       0.131204         3.5702

MULLIKEN ATOMIC CHARGES
-----------------------
   0 C :   -0.312525
   1 C :    0.032233
   2 O :   -0.391502
   3 C :    0.483336
   4 O :   -0.410425
   5 C :   -0.277100
   6 C :    0.169874
   7 C :   -0.269542
   8 N :   -0.124811
   9 C :    0.218102
  10 S :   -0.441245
  11 N :   -0.212056
  12 C :    0.077222
  13 C :    0.043005
  14 C :   -0.193843
  15 C :   -0.131996
  16 C :   -0.273222
  17 C :    0.313856
  18 O :   -0.357716
  19 C :   -0.261799
  20 H :    0.099751
  21 H :    0.104217
  22 H :    0.126662
  23 H :    0.106619
  24 H :    0.115451
  25 H :    0.129240
  26 H :    0.134524
  27 H :    0.095326
  28 H :    0.197410
  29 H :    0.194918
  30 H :    0.150413
  31 H :    0.150620
  32 H :    0.163358
  33 H :    0.133533
  34 H :    0.242444
  35 H :    0.175668
Sum of atomic charges:    0.0000000

LOEWDIN ATOMIC CHARGES
----------------------
   0 C :    0.104429
   1 C :   -0.010228
   2 O :    0.283382
   3 C :   -0.419085
   4 O :    0.114674
   5 C :   -0.098772
   6 C :   -0.057983
   7 C :    0.131370
   8 N :    0.407429
   9 C :   -0.454728
  10 S :   -0.035383
  11 N :    0.396054
  12 C :   -0.052558
  13 C :   -0.035668
  14 C :    0.011813
  15 C :    0.041698
  16 C :   -0.002113
  17 C :   -0.189306
  18 O :    0.396679
  19 C :    0.031236
  20 H :   -0.030337
  21 H :   -0.024722
  22 H :   -0.024212
  23 H :   -0.031733
  24 H :   -0.026735
  25 H :   -0.005563
  26 H :   -0.002937
  27 H :   -0.023367
  28 H :   -0.057359
  29 H :   -0.065680
  30 H :   -0.008815
  31 H :   -0.029527
  32 H :   -0.019585
  33 H :   -0.034420
  34 H :   -0.152232
  35 H :   -0.025716

  Mayer bond orders larger than 0.100000
B(  0-C ,  1-C ) :   0.9708 B(  0-C , 20-H ) :   0.9726 B(  0-C , 21-H ) :   0.9742
B(  0-C , 22-H ) :   0.9715 B(  1-C ,  2-O ) :   0.8904 B(  1-C , 23-H ) :   0.9701
B(  1-C , 24-H ) :   0.9837 B(  2-O ,  3-C ) :   1.1065 B(  3-C ,  4-O ) :   2.0111
B(  3-C ,  5-C ) :   1.0564 B(  5-C ,  6-C ) :   1.6437 B(  5-C , 12-C ) :   0.9731
B(  6-C ,  7-C ) :   0.9662 B(  6-C ,  8-N ) :   1.1629 B(  7-C , 25-H ) :   0.9617
B(  7-C , 26-H ) :   0.9583 B(  7-C , 27-H ) :   0.9900 B(  8-N ,  9-C ) :   1.1843
B(  8-N , 28-H ) :   0.9477 B(  9-C , 10-S ) :   1.6015 B(  9-C , 11-N ) :   1.3088
B( 11-N , 12-C ) :   0.9644 B( 11-N , 29-H ) :   0.9518 B( 12-C , 13-C ) :   0.9471
B( 12-C , 30-H ) :   1.0006 B( 13-C , 14-C ) :   1.3489 B( 13-C , 19-C ) :   1.3639
B( 14-C , 15-C ) :   1.3980 B( 14-C , 31-H ) :   0.9741 B( 15-C , 16-C ) :   1.3602
B( 15-C , 32-H ) :   0.9701 B( 16-C , 17-C ) :   1.3322 B( 16-C , 33-H ) :   0.9840
B( 17-C , 18-O ) :   1.1110 B( 17-C , 19-C ) :   1.3660 B( 18-O , 34-H ) :   0.9790
B( 19-C , 35-H ) :   0.9556

MP2 TOTAL ENERGY:    -1274.334857254 Eh
FINAL SINGLE POINT ENERGY     -1274.334857253697

DIPOLE MOMENT
-------------
                                X             Y             Z
Electronic contribution:      9.95966       8.99056       5.81411
Nuclear contribution   :    -10.95838     -10.64118      -5.63563
                        -----------------------------------------
Total Dipole Moment    :     -0.99872      -1.65062       0.17848
                        -----------------------------------------
Magnitude (a.u.)       :      1.93748
Magnitude (Debye)      :      4.92469

Rotational constants in cm-1:     0.012612     0.008929     0.006542
Rotational constants in MHz :   378.088630   267.677342   196.111256

                             ****ORCA TERMINATED NORMALLY****
TOTAL RUN TIME: 0 days 2 hours 5 minutes 0 seconds 764 msec
