                         Program Version 4.2.0 -  RELEASE  -
|  1> ! ri-mp2 cc-pvtz cc-pvtz/c TightSCF  NoKeepInts
|  2>
|  3> %scf
|  4>   MaxCore 4096
|  5> end
|  6> *xyz  0  1
|  7>     C       14.8142379   14.0941905   15.3411632
|  8>     C       15.3909418   14.8030041   16.5778703
|  9>     O       16.4013319   15.7181701   16.1178277
| 10>     C       17.6338417   15.6700783   16.6991247
| 11>     O       18.1833381   14.6049195   16.9257782
| 12>     C       17.9289731   16.8932085   17.5141908
| 13>     C       17.5014302   18.1406573   17.1934731
| 14>     C       16.7018400   18.5567415   15.9762415
| 15>     N       17.8650028   19.2272795   17.9949075
| 16>     C       18.7535272   19.1684756   19.0364011
| 17>     S       19.2170294   20.5237228   19.8633323
| 18>     N       19.2391489   17.9259035   19.3582807
| 19>     C       18.7675514   16.6560256   18.7737538
| 20>     C       17.9782050   15.8526272   19.8040728
| 21>     C       18.3440883   14.5285167   20.1084671
| 22>     C       17.6133851   13.7809564   21.0471236
| 23>     C       16.5055405   14.3613470   21.6877972
| 24>     C       16.1350721   15.6784175   21.3844613
| 25>     O       15.0606246   16.2389893   21.9947349
| 26>     C       16.8638030   16.4196797   20.4491184
| 27>     H       15.5993995   13.5306262   14.8213203
| 28>     H       14.3871510   14.8218835   14.6401499
| 29>     H       14.0244139   13.3916079   15.6332905
| 30>     H       14.5990588   15.3524459   17.1030381
| 31>     H       15.8030671   14.0538607   17.2686495
| 32>     H       17.0696081   18.0522605   15.0738851
| 33>     H       16.7588425   19.6352240   15.7848043
| 34>     H       15.6438607   18.2938648   16.0995883
| 35>     H       17.5202518   20.1478997   17.7739093
| 36>     H       19.8693546   17.9069887   20.1498139
| 37>     H       19.6528153   16.0719298   18.4831748
| 38>     H       19.1892898   14.0710082   19.5998090
| 39>     H       17.9039271   12.7556449   21.2692222
| 40>     H       15.9374642   13.7867862   22.4118365
| 41>     H       14.7278530   15.5986434   22.6414790
| 42>     H       16.5617296   17.4384151   20.2319091
| 43> *
| 44>
| 45>                          ****END OF INPUT****

CARTESIAN COORDINATES (ANGSTROEM)
---------------------------------
  C     14.814238   14.094190   15.341163
  C     15.390942   14.803004   16.577870
  O     16.401332   15.718170   16.117828
  C     17.633842   15.670078   16.699125
  O     18.183338   14.604919   16.925778
  C     17.928973   16.893209   17.514191
  C     17.501430   18.140657   17.193473
  C     16.701840   18.556741   15.976242
  N     17.865003   19.227280   17.994908
  C     18.753527   19.168476   19.036401
  S     19.217029   20.523723   19.863332
  N     19.239149   17.925903   19.358281
  C     18.767551   16.656026   18.773754
  C     17.978205   15.852627   19.804073
  C     18.344088   14.528517   20.108467
  C     17.613385   13.780956   21.047124
  C     16.505540   14.361347   21.687797
  C     16.135072   15.678417   21.384461
  O     15.060625   16.238989   21.994735
  C     16.863803   16.419680   20.449118
  H     15.599400   13.530626   14.821320
  H     14.387151   14.821884   14.640150
  H     14.024414   13.391608   15.633290
  H     14.599059   15.352446   17.103038
  H     15.803067   14.053861   17.268649
  H     17.069608   18.052260   15.073885
  H     16.758843   19.635224   15.784804
  H     15.643861   18.293865   16.099588
  H     17.520252   20.147900   17.773909
  H     19.869355   17.906989   20.149814
  H     19.652815   16.071930   18.483175
  H     19.189290   14.071008   19.599809
  H     17.903927   12.755645   21.269222
  H     15.937464   13.786786   22.411836
  H     14.727853   15.598643   22.641479
  H     16.561730   17.438415   20.231909

 Total Charge           Charge          ....    0
 Multiplicity           Mult            ....    1
 Number of Electrons    NEL             ....  154
 Basis Dimension        Dim             ....  828

ORBITAL ENERGIES
----------------

  NO   OCC          E(Eh)            E(eV)
   0   2.0000     -91.888595     -2500.4158
   1   2.0000     -20.594732      -560.4111
   2   2.0000     -20.588875      -560.2518
   3   2.0000     -20.553387      -559.2861
   4   2.0000     -15.628379      -425.2698
   5   2.0000     -15.607871      -424.7118
   6   2.0000     -11.395398      -310.0845
   7   2.0000     -11.383935      -309.7726
   8   2.0000     -11.333887      -308.4107
   9   2.0000     -11.310827      -307.7833
  10   2.0000     -11.307848      -307.7022
  11   2.0000     -11.298970      -307.4606
  12   2.0000     -11.259975      -306.3995
  13   2.0000     -11.259822      -306.3953
  14   2.0000     -11.256526      -306.3056
  15   2.0000     -11.251006      -306.1554
  16   2.0000     -11.240597      -305.8722
  17   2.0000     -11.236579      -305.7629
  18   2.0000     -11.233779      -305.6867
  19   2.0000     -11.227312      -305.5107
  20   2.0000      -8.893666      -242.0090
  21   2.0000      -6.575245      -178.9215
  22   2.0000      -6.573236      -178.8668
  23   2.0000      -6.572651      -178.8509
  24   2.0000      -1.453113       -39.5412
  25   2.0000      -1.414485       -38.4901
  26   2.0000      -1.357190       -36.9310
  27   2.0000      -1.339448       -36.4482
  28   2.0000      -1.237572       -33.6760
  29   2.0000      -1.155081       -31.4313
  30   2.0000      -1.120870       -30.5004
  31   2.0000      -1.044102       -28.4115
  32   2.0000      -1.034773       -28.1576
  33   2.0000      -1.012509       -27.5518
  34   2.0000      -0.998642       -27.1744
  35   2.0000      -0.983982       -26.7755
  36   2.0000      -0.922699       -25.1079
  37   2.0000      -0.883310       -24.0361
  38   2.0000      -0.848282       -23.0829
  39   2.0000      -0.837849       -22.7990
  40   2.0000      -0.831081       -22.6149
  41   2.0000      -0.824501       -22.4358
  42   2.0000      -0.757204       -20.6046
  43   2.0000      -0.735534       -20.0149
  44   2.0000      -0.727431       -19.7944
  45   2.0000      -0.692982       -18.8570
  46   2.0000      -0.686094       -18.6696
  47   2.0000      -0.680797       -18.5254
  48   2.0000      -0.673368       -18.3233
  49   2.0000      -0.658354       -17.9147
  50   2.0000      -0.647261       -17.6129
  51   2.0000      -0.641152       -17.4466
  52   2.0000      -0.629230       -17.1222
  53   2.0000      -0.617643       -16.8069
  54   2.0000      -0.603086       -16.4108
  55   2.0000      -0.602228       -16.3875
  56   2.0000      -0.598060       -16.2740
  57   2.0000      -0.580470       -15.7954
  58   2.0000      -0.575613       -15.6632
  59   2.0000      -0.563348       -15.3295
  60   2.0000      -0.562298       -15.3009
  61   2.0000      -0.548426       -14.9234
  62   2.0000      -0.534053       -14.5323
  63   2.0000      -0.520416       -14.1612
  64   2.0000      -0.518390       -14.1061
  65   2.0000      -0.511337       -13.9142
  66   2.0000      -0.502138       -13.6639
  67   2.0000      -0.497146       -13.5280
  68   2.0000      -0.482159       -13.1202
  69   2.0000      -0.464174       -12.6308
  70   2.0000      -0.459211       -12.4958
  71   2.0000      -0.452219       -12.3055
  72   2.0000      -0.353993        -9.6326
  73   2.0000      -0.346834        -9.4378
  74   2.0000      -0.327857        -8.9214
  75   2.0000      -0.317969        -8.6524
  76   2.0000      -0.315469        -8.5843
  77   0.0000       0.072243         1.9658
  78   0.0000       0.107016         2.9120
  79   0.0000       0.119319         3.2468
  80   0.0000       0.133570         3.6346
  81   0.0000       0.136901         3.7253

MULLIKEN ATOMIC CHARGES
-----------------------
   0 C :   -0.260041
   1 C :    0.042893
   2 O :   -0.371756
   3 C :    0.447628
   4 O :   -0.404840
   5 C :   -0.187255
   6 C :    0.139856
   7 C :   -0.281430
   8 N :   -0.124679
   9 C :    0.202899
  10 S :   -0.439744
  11 N :   -0.200469
  12 C :    0.050855
  13 C :    0.051593
  14 C :   -0.165435
  15 C :   -0.133669
  16 C :   -0.280552
  17 C :    0.312944
  18 O :   -0.358651
  19 C :   -0.279237
  20 H :    0.103549
  21 H :    0.090414
  22 H :    0.087092
  23 H :    0.093640
  24 H :    0.110915
  25 H :    0.124806
  26 H :    0.103916
  27 H :    0.125100
  28 H :    0.197170
  29 H :    0.194155
  30 H :    0.154556
  31 H :    0.155887
  32 H :    0.160652
  33 H :    0.129704
  34 H :    0.240621
  35 H :    0.166912
Sum of atomic charges:    0.0000000

LOEWDIN ATOMIC CHARGES
----------------------
   0 C :    0.105989
   1 C :   -0.013019
   2 O :    0.295780
   3 C :   -0.416658
   4 O :    0.121150
   5 C :   -0.093252
   6 C :   -0.072379
   7 C :    0.125821
   8 N :    0.404236
   9 C :   -0.457778
  10 S :   -0.036345
  11 N :    0.397192
  12 C :   -0.045647
  13 C :   -0.039992
  14 C :    0.021186
  15 C :    0.040828
  16 C :   -0.002232
  17 C :   -0.193353
  18 O :    0.393225
  19 C :    0.028235
  20 H :   -0.023122
  21 H :   -0.029523
  22 H :   -0.027260
  23 H :   -0.032284
  24 H :   -0.025120
  25 H :   -0.008022
  26 H :   -0.019808
  27 H :   -0.009972
  28 H :   -0.058791
  29 H :   -0.063992
  30 H :   -0.004771
  31 H :   -0.024874
  32 H :   -0.020654
  33 H :   -0.035913
  34 H :   -0.154330
  35 H :   -0.024551

  Mayer bond orders larger than 0.100000
B(  0-C ,  1-C ) :   0.9790 B(  0-C , 20-H ) :   0.9776 B(  0-C , 21-H ) :   0.9795
B(  0-C , 22-H ) :   0.9759 B(  1-C ,  2-O ) :   0.8822 B(  1-C , 23-H ) :   0.9776
B(  1-C , 24-H ) :   0.9701 B(  2-O ,  3-C ) :   1.0959 B(  3-C ,  4-O ) :   2.0170
B(  3-C ,  5-C ) :   1.0367 B(  5-C ,  6-C ) :   1.6641 B(  5-C , 12-C ) :   0.9651
B(  6-C ,  7-C ) :   0.9520 B(  6-C ,  8-N ) :   1.1399 B(  7-C , 25-H ) :   0.9697
B(  7-C , 26-H ) :   0.9886 B(  7-C , 27-H ) :   0.9637 B(  8-N ,  9-C ) :   1.1833
B(  8-N , 28-H ) :   0.9496 B(  9-C , 10-S ) :   1.6106 B(  9-C , 11-N ) :   1.3008
B( 11-N , 12-C ) :   0.9919 B( 11-N , 29-H ) :   0.9517 B( 12-C , 13-C ) :   0.9448
B( 12-C , 30-H ) :   0.9984 B( 13-C , 14-C ) :   1.3767 B( 13-C , 19-C ) :   1.3686
B( 14-C , 15-C ) :   1.3940 B( 14-C , 31-H ) :   0.9640 B( 15-C , 16-C ) :   1.3634
B( 15-C , 32-H ) :   0.9709 B( 16-C , 17-C ) :   1.3310 B( 16-C , 33-H ) :   0.9854
B( 17-C , 18-O ) :   1.1090 B( 17-C , 19-C ) :   1.3755 B( 18-O , 34-H ) :   0.9801
B( 19-C , 35-H ) :   0.9580

MP2 TOTAL ENERGY:    -1274.328987015 Eh
FINAL SINGLE POINT ENERGY     -1274.328987015441

DIPOLE MOMENT
-------------
                                X             Y             Z
Electronic contribution:     11.17848      10.21122       9.38921
Nuclear contribution   :    -12.64068     -11.45288      -9.98597
                        -----------------------------------------
Total Dipole Moment    :     -1.46220      -1.24167      -0.59676
                        -----------------------------------------
Magnitude (a.u.)       :      2.00895
Magnitude (Debye)      :      5.10635

Rotational constants in cm-1:     0.011056     0.009038     0.006172
Rotational constants in MHz :   331.441846   270.938472   185.037949

                             ****ORCA TERMINATED NORMALLY****
TOTAL RUN TIME: 0 days 1 hours 36 minutes 10 seconds 150 msec
