                         Program Version 4.2.0 -  RELEASE  -
|  1> ! ri-mp2 cc-pvtz cc-pvtz/c TightSCF  NoKeepInts
|  2>
|  3> %scf
|  4>   MaxCore 4096
|  5> end
|  6> *xyz  0  1
|  7>     C       14.6788063   14.7134435   14.6635491
|  8>     C       15.4227835   14.5039095   15.9930906
|  9>     O       16.3382198   15.6023011   16.1479964
| 10>     C       17.4531053   15.4442221   16.9195320
| 11>     O       17.8890376   14.3425897   17.2117543
| 12>     C       17.8757220   16.6887693   17.6467892
| 13>     C       17.5508599   17.9549654   17.2748664
| 14>     C       16.7339206   18.3955710   16.0772394
| 15>     N       18.0546588   19.0415136   17.9977248
| 16>     C       18.9966300   18.9548031   18.9885763
| 17>     S       19.6371020   20.3019819   19.7030940
| 18>     N       19.3815147   17.6906339   19.3563474
| 19>     C       18.7451887   16.4459520   18.8859338
| 20>     C       17.9336648   15.8046707   20.0087738
| 21>     C       18.1732861   14.4711969   20.3889931
| 22>     C       17.4279105   13.8748158   21.4198617
| 23>     C       16.4329595   14.6175784   22.0778692
| 24>     C       16.1883222   15.9447488   21.6999309
| 25>     O       15.2239865   16.6627199   22.3291854
| 26>     C       16.9314926   16.5354198   20.6731477
| 27>     H       14.1225465   15.6588784   14.6758267
| 28>     H       13.9666517   13.8977079   14.4890932
| 29>     H       15.3857801   14.7368781   13.8248244
| 30>     H       14.7202650   14.4670223   16.8359973
| 31>     H       15.9585049   13.5459143   15.9425280
| 32>     H       17.0797890   17.8960147   15.1636570
| 33>     H       16.7973593   19.4752719   15.8954964
| 34>     H       15.6749662   18.1454827   16.2182902
| 35>     H       17.7846188   19.9778868   17.7422919
| 36>     H       20.0539742   17.6527839   20.1115206
| 37>     H       19.5476858   15.7502282   18.6010219
| 38>     H       18.9305227   13.8890177   19.8694644
| 39>     H       17.6193778   12.8405502   21.6999381
| 40>     H       15.8538186   14.1603301   22.8731182
| 41>     H       14.8538692   16.1012171   23.0266695
| 42>     H       16.7280989   17.5650094   20.4000067
| 43> *
| 44>
| 45>                          ****END OF INPUT****

CARTESIAN COORDINATES (ANGSTROEM)
---------------------------------
  C     14.678806   14.713444   14.663549
  C     15.422783   14.503910   15.993091
  O     16.338220   15.602301   16.147996
  C     17.453105   15.444222   16.919532
  O     17.889038   14.342590   17.211754
  C     17.875722   16.688769   17.646789
  C     17.550860   17.954965   17.274866
  C     16.733921   18.395571   16.077239
  N     18.054659   19.041514   17.997725
  C     18.996630   18.954803   18.988576
  S     19.637102   20.301982   19.703094
  N     19.381515   17.690634   19.356347
  C     18.745189   16.445952   18.885934
  C     17.933665   15.804671   20.008774
  C     18.173286   14.471197   20.388993
  C     17.427910   13.874816   21.419862
  C     16.432959   14.617578   22.077869
  C     16.188322   15.944749   21.699931
  O     15.223987   16.662720   22.329185
  C     16.931493   16.535420   20.673148
  H     14.122547   15.658878   14.675827
  H     13.966652   13.897708   14.489093
  H     15.385780   14.736878   13.824824
  H     14.720265   14.467022   16.835997
  H     15.958505   13.545914   15.942528
  H     17.079789   17.896015   15.163657
  H     16.797359   19.475272   15.895496
  H     15.674966   18.145483   16.218290
  H     17.784619   19.977887   17.742292
  H     20.053974   17.652784   20.111521
  H     19.547686   15.750228   18.601022
  H     18.930523   13.889018   19.869464
  H     17.619378   12.840550   21.699938
  H     15.853819   14.160330   22.873118
  H     14.853869   16.101217   23.026670
  H     16.728099   17.565009   20.400007

 Total Charge           Charge          ....    0
 Multiplicity           Mult            ....    1
 Number of Electrons    NEL             ....  154
 Basis Dimension        Dim             ....  828

ORBITAL ENERGIES
----------------

  NO   OCC          E(Eh)            E(eV)
   0   2.0000     -91.887977     -2500.3990
   1   2.0000     -20.600970      -560.5809
   2   2.0000     -20.591727      -560.3294
   3   2.0000     -20.546997      -559.1122
   4   2.0000     -15.628261      -425.2666
   5   2.0000     -15.606653      -424.6786
   6   2.0000     -11.395625      -310.0907
   7   2.0000     -11.382930      -309.7453
   8   2.0000     -11.335784      -308.4624
   9   2.0000     -11.307525      -307.6934
  10   2.0000     -11.305692      -307.6435
  11   2.0000     -11.298442      -307.4462
  12   2.0000     -11.260335      -306.4093
  13   2.0000     -11.259063      -306.3747
  14   2.0000     -11.253433      -306.2215
  15   2.0000     -11.247627      -306.0635
  16   2.0000     -11.237290      -305.7822
  17   2.0000     -11.233667      -305.6836
  18   2.0000     -11.233409      -305.6766
  19   2.0000     -11.230391      -305.5945
  20   2.0000      -8.893043      -241.9920
  21   2.0000      -6.574621      -178.9045
  22   2.0000      -6.572614      -178.8499
  23   2.0000      -6.572028      -178.8340
  24   2.0000      -1.454153       -39.5695
  25   2.0000      -1.411463       -38.4078
  26   2.0000      -1.357393       -36.9365
  27   2.0000      -1.339195       -36.4414
  28   2.0000      -1.236850       -33.6564
  29   2.0000      -1.152093       -31.3500
  30   2.0000      -1.119528       -30.4639
  31   2.0000      -1.044425       -28.4202
  32   2.0000      -1.036772       -28.2120
  33   2.0000      -1.009470       -27.4691
  34   2.0000      -0.997530       -27.1442
  35   2.0000      -0.983149       -26.7528
  36   2.0000      -0.921023       -25.0623
  37   2.0000      -0.887597       -24.1527
  38   2.0000      -0.847000       -23.0480
  39   2.0000      -0.835027       -22.7222
  40   2.0000      -0.827832       -22.5265
  41   2.0000      -0.818796       -22.2806
  42   2.0000      -0.761223       -20.7139
  43   2.0000      -0.735899       -20.0248
  44   2.0000      -0.724898       -19.7255
  45   2.0000      -0.690306       -18.7842
  46   2.0000      -0.684197       -18.6180
  47   2.0000      -0.680373       -18.5139
  48   2.0000      -0.675241       -18.3742
  49   2.0000      -0.654165       -17.8007
  50   2.0000      -0.651603       -17.7310
  51   2.0000      -0.642761       -17.4904
  52   2.0000      -0.633696       -17.2437
  53   2.0000      -0.607710       -16.5366
  54   2.0000      -0.600693       -16.3457
  55   2.0000      -0.599866       -16.3232
  56   2.0000      -0.595070       -16.1927
  57   2.0000      -0.578895       -15.7525
  58   2.0000      -0.573255       -15.5991
  59   2.0000      -0.562665       -15.3109
  60   2.0000      -0.561861       -15.2890
  61   2.0000      -0.544722       -14.8226
  62   2.0000      -0.542744       -14.7688
  63   2.0000      -0.527149       -14.3445
  64   2.0000      -0.517178       -14.0731
  65   2.0000      -0.509329       -13.8595
  66   2.0000      -0.500604       -13.6221
  67   2.0000      -0.495216       -13.4755
  68   2.0000      -0.481372       -13.0988
  69   2.0000      -0.463374       -12.6090
  70   2.0000      -0.461776       -12.5656
  71   2.0000      -0.452406       -12.3106
  72   2.0000      -0.354043        -9.6340
  73   2.0000      -0.343959        -9.3596
  74   2.0000      -0.327116        -8.9013
  75   2.0000      -0.315528        -8.5860
  76   2.0000      -0.313838        -8.5400
  77   0.0000       0.075354         2.0505
  78   0.0000       0.112417         3.0590
  79   0.0000       0.120442         3.2774
  80   0.0000       0.135669         3.6917
  81   0.0000       0.138587         3.7712

MULLIKEN ATOMIC CHARGES
-----------------------
   0 C :   -0.267203
   1 C :    0.030456
   2 O :   -0.347516
   3 C :    0.450478
   4 O :   -0.422504
   5 C :   -0.180726
   6 C :    0.142136
   7 C :   -0.287481
   8 N :   -0.122901
   9 C :    0.201729
  10 S :   -0.439524
  11 N :   -0.197505
  12 C :    0.037648
  13 C :    0.055434
  14 C :   -0.160491
  15 C :   -0.133828
  16 C :   -0.279240
  17 C :    0.311065
  18 O :   -0.359159
  19 C :   -0.272391
  20 H :    0.090506
  21 H :    0.095845
  22 H :    0.097944
  23 H :    0.095153
  24 H :    0.115677
  25 H :    0.126153
  26 H :    0.103677
  27 H :    0.126934
  28 H :    0.196864
  29 H :    0.193664
  30 H :    0.153827
  31 H :    0.153357
  32 H :    0.159057
  33 H :    0.128057
  34 H :    0.240064
  35 H :    0.164743
Sum of atomic charges:   -0.0000000

LOEWDIN ATOMIC CHARGES
----------------------
   0 C :    0.105859
   1 C :   -0.013664
   2 O :    0.303948
   3 C :   -0.413656
   4 O :    0.107403
   5 C :   -0.091481
   6 C :   -0.067129
   7 C :    0.125005
   8 N :    0.404691
   9 C :   -0.458720
  10 S :   -0.036177
  11 N :    0.397725
  12 C :   -0.046265
  13 C :   -0.038888
  14 C :    0.022129
  15 C :    0.040977
  16 C :   -0.002414
  17 C :   -0.192788
  18 O :    0.392934
  19 C :    0.028316
  20 H :   -0.030370
  21 H :   -0.024093
  22 H :   -0.025743
  23 H :   -0.030282
  24 H :   -0.027037
  25 H :   -0.008540
  26 H :   -0.020761
  27 H :   -0.010287
  28 H :   -0.059114
  29 H :   -0.063740
  30 H :   -0.004918
  31 H :   -0.025291
  32 H :   -0.021213
  33 H :   -0.036421
  34 H :   -0.154914
  35 H :   -0.025083

  Mayer bond orders larger than 0.100000
B(  0-C ,  1-C ) :   0.9731 B(  0-C , 20-H ) :   0.9794 B(  0-C , 21-H ) :   0.9773
B(  0-C , 22-H ) :   0.9775 B(  1-C ,  2-O ) :   0.8935 B(  1-C , 23-H ) :   0.9756
B(  1-C , 24-H ) :   0.9762 B(  2-O ,  3-C ) :   1.1463 B(  3-C ,  4-O ) :   1.9966
B(  3-C ,  5-C ) :   1.0459 B(  5-C ,  6-C ) :   1.6501 B(  5-C , 12-C ) :   0.9659
B(  6-C ,  7-C ) :   0.9539 B(  6-C ,  8-N ) :   1.1445 B(  7-C , 25-H ) :   0.9667
B(  7-C , 26-H ) :   0.9916 B(  7-C , 27-H ) :   0.9631 B(  8-N ,  9-C ) :   1.1795
B(  8-N , 28-H ) :   0.9490 B(  9-C , 10-S ) :   1.6106 B(  9-C , 11-N ) :   1.3037
B( 11-N , 12-C ) :   0.9915 B( 11-N , 29-H ) :   0.9520 B( 12-C , 13-C ) :   0.9475
B( 12-C , 30-H ) :   0.9994 B( 13-C , 14-C ) :   1.3766 B( 13-C , 19-C ) :   1.3691
B( 14-C , 15-C ) :   1.3948 B( 14-C , 31-H ) :   0.9648 B( 15-C , 16-C ) :   1.3627
B( 15-C , 32-H ) :   0.9714 B( 16-C , 17-C ) :   1.3314 B( 16-C , 33-H ) :   0.9860
B( 17-C , 18-O ) :   1.1080 B( 17-C , 19-C ) :   1.3790 B( 18-O , 34-H ) :   0.9806
B( 19-C , 35-H ) :   0.9584

MP2 TOTAL ENERGY:    -1274.343568124 Eh
FINAL SINGLE POINT ENERGY     -1274.343568124056

DIPOLE MOMENT
-------------
                                X             Y             Z
Electronic contribution:     11.72551       8.68284      11.49608
Nuclear contribution   :    -13.33744      -9.90540     -12.37086
                        -----------------------------------------
Total Dipole Moment    :     -1.61193      -1.22256      -0.87478
                        -----------------------------------------
Magnitude (a.u.)       :      2.20414
Magnitude (Debye)      :      5.60247

Rotational constants in cm-1:     0.010384     0.008882     0.005848
Rotational constants in MHz :   311.312094   266.280945   175.330790

                             ****ORCA TERMINATED NORMALLY****
TOTAL RUN TIME: 0 days 1 hours 36 minutes 59 seconds 939 msec
