                         Program Version 4.2.0 -  RELEASE  -
|  1> ! ri-mp2 cc-pvtz cc-pvtz/c TightSCF  NoKeepInts
|  2>
|  3> %scf
|  4>   MaxCore 4096
|  5> end
|  6> *xyz  0  1
|  7>     C       14.9653525   15.5727640   16.9913805
|  8>     C       16.0453439   14.4698710   16.9489483
|  9>     O       17.1850015   14.8461572   16.1423022
| 10>     C       17.8139565   16.0649796   16.0812444
| 11>     O       18.2592403   16.4532140   15.0173715
| 12>     C       17.7913955   16.9606874   17.2821646
| 13>     C       17.3610261   18.2390332   17.1638313
| 14>     C       16.6806653   18.8470842   15.9571379
| 15>     N       17.5801710   19.1527632   18.1971078
| 16>     C       18.4272056   18.9325856   19.2511646
| 17>     S       18.7798603   20.1149332   20.3522212
| 18>     N       18.9801867   17.6787342   19.3400410
| 19>     C       18.5698720   16.5139445   18.5312937
| 20>     C       17.8333512   15.5307751   19.4294014
| 21>     C       18.3473870   14.2362666   19.6358682
| 22>     C       17.6753855   13.3261871   20.4692567
| 23>     C       16.4849460   13.7150007   21.1071636
| 24>     C       15.9789393   15.0078700   20.9161498
| 25>     O       14.8297758   15.3866281   21.5290648
| 26>     C       16.6494833   15.9118931   20.0867387
| 27>     H       15.2448113   16.4029829   17.6468743
| 28>     H       14.0270006   15.1587400   17.3803023
| 29>     H       14.7674026   15.9624787   15.9851134
| 30>     H       16.3399179   14.1923274   17.9623530
| 31>     H       15.6030874   13.5696926   16.5029197
| 32>     H       16.0125903   18.1262305   15.4707231
| 33>     H       17.4288954   19.1474173   15.2117648
| 34>     H       16.0814363   19.7287364   16.2133853
| 35>     H       17.2113603   20.0877898   18.1240754
| 36>     H       19.5896039   17.5441171   20.1368782
| 37>     H       19.4871223   16.0224288   18.1765958
| 38>     H       19.2673000   13.9305725   19.1435215
| 39>     H       18.0781144   12.3256189   20.6198231
| 40>     H       15.9628591   13.0147058   21.7513221
| 41>     H       14.5591925   14.6648588   22.1169054
| 42>     H       16.2477605   16.9119305   19.9615906
| 43> *
| 44>
| 45>                          ****END OF INPUT****

CARTESIAN COORDINATES (ANGSTROEM)
---------------------------------
  C     14.965352   15.572764   16.991381
  C     16.045344   14.469871   16.948948
  O     17.185001   14.846157   16.142302
  C     17.813956   16.064980   16.081244
  O     18.259240   16.453214   15.017371
  C     17.791396   16.960687   17.282165
  C     17.361026   18.239033   17.163831
  C     16.680665   18.847084   15.957138
  N     17.580171   19.152763   18.197108
  C     18.427206   18.932586   19.251165
  S     18.779860   20.114933   20.352221
  N     18.980187   17.678734   19.340041
  C     18.569872   16.513945   18.531294
  C     17.833351   15.530775   19.429401
  C     18.347387   14.236267   19.635868
  C     17.675386   13.326187   20.469257
  C     16.484946   13.715001   21.107164
  C     15.978939   15.007870   20.916150
  O     14.829776   15.386628   21.529065
  C     16.649483   15.911893   20.086739
  H     15.244811   16.402983   17.646874
  H     14.027001   15.158740   17.380302
  H     14.767403   15.962479   15.985113
  H     16.339918   14.192327   17.962353
  H     15.603087   13.569693   16.502920
  H     16.012590   18.126230   15.470723
  H     17.428895   19.147417   15.211765
  H     16.081436   19.728736   16.213385
  H     17.211360   20.087790   18.124075
  H     19.589604   17.544117   20.136878
  H     19.487122   16.022429   18.176596
  H     19.267300   13.930572   19.143521
  H     18.078114   12.325619   20.619823
  H     15.962859   13.014706   21.751322
  H     14.559192   14.664859   22.116905
  H     16.247760   16.911931   19.961591

 Total Charge           Charge          ....    0
 Multiplicity           Mult            ....    1
 Number of Electrons    NEL             ....  154
 Basis Dimension        Dim             ....  828

ORBITAL ENERGIES
----------------

  NO   OCC          E(Eh)            E(eV)
   0   2.0000     -91.890265     -2500.4612
   1   2.0000     -20.606227      -560.7239
   2   2.0000     -20.591960      -560.3357
   3   2.0000     -20.548126      -559.1429
   4   2.0000     -15.627354      -425.2419
   5   2.0000     -15.611569      -424.8124
   6   2.0000     -11.395669      -310.0919
   7   2.0000     -11.385701      -309.8207
   8   2.0000     -11.328308      -308.2589
   9   2.0000     -11.324775      -308.1628
  10   2.0000     -11.319542      -308.0204
  11   2.0000     -11.299828      -307.4840
  12   2.0000     -11.269510      -306.6590
  13   2.0000     -11.265947      -306.5620
  14   2.0000     -11.258954      -306.3717
  15   2.0000     -11.255778      -306.2853
  16   2.0000     -11.254444      -306.2490
  17   2.0000     -11.249036      -306.1018
  18   2.0000     -11.248372      -306.0838
  19   2.0000     -11.231885      -305.6351
  20   2.0000      -8.895325      -242.0541
  21   2.0000      -6.576901      -178.9666
  22   2.0000      -6.574893      -178.9119
  23   2.0000      -6.574307      -178.8960
  24   2.0000      -1.441582       -39.2274
  25   2.0000      -1.425944       -38.8019
  26   2.0000      -1.353955       -36.8430
  27   2.0000      -1.340683       -36.4819
  28   2.0000      -1.241023       -33.7699
  29   2.0000      -1.167519       -31.7698
  30   2.0000      -1.123876       -30.5822
  31   2.0000      -1.051427       -28.6108
  32   2.0000      -1.034521       -28.1508
  33   2.0000      -1.025845       -27.9147
  34   2.0000      -1.003174       -27.2978
  35   2.0000      -0.988834       -26.9075
  36   2.0000      -0.928940       -25.2777
  37   2.0000      -0.897884       -24.4327
  38   2.0000      -0.851457       -23.1693
  39   2.0000      -0.847101       -23.0508
  40   2.0000      -0.843934       -22.9646
  41   2.0000      -0.829169       -22.5628
  42   2.0000      -0.750659       -20.4265
  43   2.0000      -0.739754       -20.1297
  44   2.0000      -0.719410       -19.5761
  45   2.0000      -0.705525       -19.1983
  46   2.0000      -0.693681       -18.8760
  47   2.0000      -0.679667       -18.4947
  48   2.0000      -0.674686       -18.3591
  49   2.0000      -0.662901       -18.0385
  50   2.0000      -0.654048       -17.7975
  51   2.0000      -0.649260       -17.6673
  52   2.0000      -0.638520       -17.3750
  53   2.0000      -0.622450       -16.9377
  54   2.0000      -0.615792       -16.7565
  55   2.0000      -0.608708       -16.5638
  56   2.0000      -0.603891       -16.4327
  57   2.0000      -0.585417       -15.9300
  58   2.0000      -0.577982       -15.7277
  59   2.0000      -0.567549       -15.4438
  60   2.0000      -0.560169       -15.2430
  61   2.0000      -0.548497       -14.9254
  62   2.0000      -0.539686       -14.6856
  63   2.0000      -0.536394       -14.5960
  64   2.0000      -0.531761       -14.4700
  65   2.0000      -0.518247       -14.1022
  66   2.0000      -0.507597       -13.8124
  67   2.0000      -0.500523       -13.6199
  68   2.0000      -0.485479       -13.2106
  69   2.0000      -0.467236       -12.7141
  70   2.0000      -0.450221       -12.2511
  71   2.0000      -0.445714       -12.1285
  72   2.0000      -0.358839        -9.7645
  73   2.0000      -0.355386        -9.6705
  74   2.0000      -0.334661        -9.1066
  75   2.0000      -0.328895        -8.9497
  76   2.0000      -0.317537        -8.6406
  77   0.0000       0.078562         2.1378
  78   0.0000       0.099531         2.7084
  79   0.0000       0.118929         3.2362
  80   0.0000       0.126063         3.4303
  81   0.0000       0.130926         3.5627

MULLIKEN ATOMIC CHARGES
-----------------------
   0 C :   -0.343498
   1 C :    0.036521
   2 O :   -0.325845
   3 C :    0.398284
   4 O :   -0.369363
   5 C :   -0.237666
   6 C :    0.156240
   7 C :   -0.286211
   8 N :   -0.127675
   9 C :    0.202022
  10 S :   -0.437754
  11 N :   -0.192209
  12 C :    0.042943
  13 C :    0.036512
  14 C :   -0.180556
  15 C :   -0.131297
  16 C :   -0.273094
  17 C :    0.317425
  18 O :   -0.355629
  19 C :   -0.284279
  20 H :    0.108802
  21 H :    0.119933
  22 H :    0.114516
  23 H :    0.101388
  24 H :    0.126069
  25 H :    0.118210
  26 H :    0.149048
  27 H :    0.096843
  28 H :    0.197581
  29 H :    0.191553
  30 H :    0.156212
  31 H :    0.151751
  32 H :    0.164325
  33 H :    0.135532
  34 H :    0.242491
  35 H :    0.180874
Sum of atomic charges:   -0.0000000

LOEWDIN ATOMIC CHARGES
----------------------
   0 C :    0.103110
   1 C :   -0.014074
   2 O :    0.294475
   3 C :   -0.419796
   4 O :    0.128598
   5 C :   -0.088245
   6 C :   -0.083053
   7 C :    0.129717
   8 N :    0.404544
   9 C :   -0.456807
  10 S :   -0.034730
  11 N :    0.397034
  12 C :   -0.052566
  13 C :   -0.045259
  14 C :    0.012533
  15 C :    0.043646
  16 C :    0.001459
  17 C :   -0.190836
  18 O :    0.397979
  19 C :    0.035492
  20 H :   -0.037885
  21 H :   -0.021796
  22 H :   -0.028561
  23 H :   -0.037601
  24 H :   -0.020796
  25 H :   -0.010618
  26 H :   -0.002299
  27 H :   -0.020939
  28 H :   -0.057944
  29 H :   -0.064828
  30 H :   -0.005952
  31 H :   -0.028217
  32 H :   -0.018426
  33 H :   -0.032970
  34 H :   -0.151749
  35 H :   -0.022640

  Mayer bond orders larger than 0.100000
B(  0-C ,  1-C ) :   0.9571 B(  0-C , 20-H ) :   0.9690 B(  0-C , 21-H ) :   0.9766
B(  0-C , 22-H ) :   0.9762 B(  1-C ,  2-O ) :   0.9064 B(  1-C , 23-H ) :   0.9654
B(  1-C , 24-H ) :   0.9836 B(  2-O ,  3-C ) :   1.1962 B(  3-C ,  4-O ) :   2.1096
B(  3-C ,  5-C ) :   0.9273 B(  5-C ,  6-C ) :   1.7130 B(  5-C , 12-C ) :   0.9655
B(  6-C ,  7-C ) :   0.9526 B(  6-C ,  8-N ) :   1.1250 B(  7-C , 25-H ) :   0.9741
B(  7-C , 26-H ) :   0.9583 B(  7-C , 27-H ) :   0.9834 B(  8-N ,  9-C ) :   1.1917
B(  8-N , 28-H ) :   0.9504 B(  9-C , 10-S ) :   1.6161 B(  9-C , 11-N ) :   1.2850
B( 11-N , 12-C ) :   0.9918 B( 11-N , 29-H ) :   0.9530 B( 12-C , 13-C ) :   0.9379
B( 12-C , 30-H ) :   1.0079 B( 13-C , 14-C ) :   1.3582 B( 13-C , 19-C ) :   1.3577
B( 14-C , 15-C ) :   1.3922 B( 14-C , 31-H ) :   0.9722 B( 15-C , 16-C ) :   1.3694
B( 15-C , 32-H ) :   0.9699 B( 16-C , 17-C ) :   1.3247 B( 16-C , 33-H ) :   0.9829
B( 17-C , 18-O ) :   1.1154 B( 17-C , 19-C ) :   1.3714 B( 18-O , 34-H ) :   0.9785
B( 19-C , 35-H ) :   0.9527

MP2 TOTAL ENERGY:    -1274.326557352 Eh
FINAL SINGLE POINT ENERGY     -1274.326557352378

DIPOLE MOMENT
-------------
                                X             Y             Z
Electronic contribution:      9.82641       6.45875       5.45355
Nuclear contribution   :    -11.25077      -8.18177      -4.93345
                        -----------------------------------------
Total Dipole Moment    :     -1.42436      -1.72302       0.52010
                        -----------------------------------------
Magnitude (a.u.)       :      2.29523
Magnitude (Debye)      :      5.83401

Rotational constants in cm-1:     0.011845     0.009725     0.006745
Rotational constants in MHz :   355.108447   291.540861   202.215221

                             ****ORCA TERMINATED NORMALLY****
TOTAL RUN TIME: 0 days 1 hours 50 minutes 39 seconds 672 msec
