                         Program Version 5.0.0 -  RELEASE  -
|  1> ! ri-mp2 cc-pvtz cc-pvtz/c TightSCF NoKeepInts
|  2>
|  3> %scf
|  4>   MaxCore 4096
|  5> end
|  6> *xyz  0  1
|  7>     C       14.9425716   14.3370773   16.1101133
|  8>     C       16.2880844   14.0927011   16.8251583
|  9>     O       17.3119191   15.0620659   16.4862908
| 10>     C       17.0519087   16.3973040   16.3309838
| 11>     O       16.3161103   16.8175561   15.4556540
| 12>     C       17.6620003   17.2513447   17.4107205
| 13>     C       17.4651862   18.5938787   17.4721292
| 14>     C       16.6148332   19.4424190   16.5507477
| 15>     N       18.1128892   19.3540027   18.4506881
| 16>     C       19.0724358   18.8777606   19.3032225
| 17>     S       19.8841399   19.8679683   20.3503391
| 18>     N       19.3344449   17.5334579   19.2374140
| 19>     C       18.5586969   16.5574993   18.4513438
| 20>     C       17.7758205   15.6592963   19.4031760
| 21>     C       18.2326960   14.3575039   19.6831548
| 22>     C       17.5165169   13.5208114   20.5555977
| 23>     C       16.3370345   13.9911346   21.1576856
| 24>     C       15.8854421   15.2907383   20.8902681
| 25>     O       14.7487760   15.7488759   21.4719943
| 26>     C       16.5991640   16.1206985   20.0203313
| 27>     H       14.4616987   15.2553924   16.4695815
| 28>     H       14.2541978   13.5049395   16.2999963
| 29>     H       15.0867230   14.4175130   15.0251111
| 30>     H       16.1037477   14.1135064   17.9060866
| 31>     H       16.6544307   13.0887030   16.5758903
| 32>     H       15.5751842   19.0908277   16.5520843
| 33>     H       16.9808119   19.3753801   15.5181446
| 34>     H       16.6047903   20.5024960   16.8298807
| 35>     H       17.9388866   20.3448358   18.5062604
| 36>     H       20.0254997   17.2069364   19.9004194
| 37>     H       19.2773109   15.9332512   17.9014714
| 38>     H       19.1442614   13.9910822   19.2181253
| 39>     H       17.8772855   12.5150676   20.7652967
| 40>     H       15.7814600   13.3493439   21.8338279
| 41>     H       14.4330969   15.0623884   22.0789379
| 42>     H       16.2369443   17.1262420   19.8358730
| 43> *
| 44>
| 45>                          ****END OF INPUT****

CARTESIAN COORDINATES (ANGSTROEM)
---------------------------------
  C     14.942572   14.337077   16.110113
  C     16.288084   14.092701   16.825158
  O     17.311919   15.062066   16.486291
  C     17.051909   16.397304   16.330984
  O     16.316110   16.817556   15.455654
  C     17.662000   17.251345   17.410721
  C     17.465186   18.593879   17.472129
  C     16.614833   19.442419   16.550748
  N     18.112889   19.354003   18.450688
  C     19.072436   18.877761   19.303223
  S     19.884140   19.867968   20.350339
  N     19.334445   17.533458   19.237414
  C     18.558697   16.557499   18.451344
  C     17.775820   15.659296   19.403176
  C     18.232696   14.357504   19.683155
  C     17.516517   13.520811   20.555598
  C     16.337035   13.991135   21.157686
  C     15.885442   15.290738   20.890268
  O     14.748776   15.748876   21.471994
  C     16.599164   16.120698   20.020331
  H     14.461699   15.255392   16.469582
  H     14.254198   13.504940   16.299996
  H     15.086723   14.417513   15.025111
  H     16.103748   14.113506   17.906087
  H     16.654431   13.088703   16.575890
  H     15.575184   19.090828   16.552084
  H     16.980812   19.375380   15.518145
  H     16.604790   20.502496   16.829881
  H     17.938887   20.344836   18.506260
  H     20.025500   17.206936   19.900419
  H     19.277311   15.933251   17.901471
  H     19.144261   13.991082   19.218125
  H     17.877285   12.515068   20.765297
  H     15.781460   13.349344   21.833828
  H     14.433097   15.062388   22.078938
  H     16.236944   17.126242   19.835873

 Total Charge           Charge          ....    0
 Multiplicity           Mult            ....    1
 Number of Electrons    NEL             ....  154
 Basis Dimension        Dim             ....  828

ORBITAL ENERGIES
----------------

  NO   OCC          E(Eh)            E(eV)
   0   2.0000     -91.889796     -2500.4485
   1   2.0000     -20.601771      -560.6027
   2   2.0000     -20.585202      -560.1518
   3   2.0000     -20.544324      -559.0395
   4   2.0000     -15.630152      -425.3181
   5   2.0000     -15.609131      -424.7461
   6   2.0000     -11.394277      -310.0541
   7   2.0000     -11.384691      -309.7932
   8   2.0000     -11.336847      -308.4913
   9   2.0000     -11.319682      -308.0242
  10   2.0000     -11.310450      -307.7730
  11   2.0000     -11.297566      -307.4224
  12   2.0000     -11.264062      -306.5107
  13   2.0000     -11.260810      -306.4222
  14   2.0000     -11.258377      -306.3560
  15   2.0000     -11.252861      -306.2059
  16   2.0000     -11.248363      -306.0835
  17   2.0000     -11.243114      -305.9407
  18   2.0000     -11.242672      -305.9286
  19   2.0000     -11.219915      -305.3094
  20   2.0000      -8.894850      -242.0412
  21   2.0000      -6.576422      -178.9535
  22   2.0000      -6.574420      -178.8991
  23   2.0000      -6.573831      -178.8830
  24   2.0000      -1.441708       -39.2309
  25   2.0000      -1.421432       -38.6791
  26   2.0000      -1.351556       -36.7777
  27   2.0000      -1.341317       -36.4991
  28   2.0000      -1.239941       -33.7405
  29   2.0000      -1.162165       -31.6241
  30   2.0000      -1.120979       -30.5034
  31   2.0000      -1.045801       -28.4577
  32   2.0000      -1.031186       -28.0600
  33   2.0000      -1.020393       -27.7663
  34   2.0000      -0.997121       -27.1330
  35   2.0000      -0.985078       -26.8053
  36   2.0000      -0.924792       -25.1649
  37   2.0000      -0.890881       -24.2421
  38   2.0000      -0.849049       -23.1038
  39   2.0000      -0.842282       -22.9197
  40   2.0000      -0.838384       -22.8136
  41   2.0000      -0.822767       -22.3886
  42   2.0000      -0.747124       -20.3303
  43   2.0000      -0.734548       -19.9881
  44   2.0000      -0.716866       -19.5069
  45   2.0000      -0.700224       -19.0541
  46   2.0000      -0.689966       -18.7749
  47   2.0000      -0.676438       -18.4068
  48   2.0000      -0.667006       -18.1502
  49   2.0000      -0.664002       -18.0684
  50   2.0000      -0.651572       -17.7302
  51   2.0000      -0.646708       -17.5978
  52   2.0000      -0.638228       -17.3671
  53   2.0000      -0.612253       -16.6603
  54   2.0000      -0.609771       -16.5927
  55   2.0000      -0.602786       -16.4026
  56   2.0000      -0.601153       -16.3582
  57   2.0000      -0.581412       -15.8210
  58   2.0000      -0.572001       -15.5649
  59   2.0000      -0.568534       -15.4706
  60   2.0000      -0.557404       -15.1677
  61   2.0000      -0.539720       -14.6865
  62   2.0000      -0.534649       -14.5485
  63   2.0000      -0.529032       -14.3957
  64   2.0000      -0.523115       -14.2347
  65   2.0000      -0.515066       -14.0157
  66   2.0000      -0.504103       -13.7173
  67   2.0000      -0.494523       -13.4567
  68   2.0000      -0.484783       -13.1916
  69   2.0000      -0.463113       -12.6019
  70   2.0000      -0.451502       -12.2860
  71   2.0000      -0.441298       -12.0083
  72   2.0000      -0.356188        -9.6924
  73   2.0000      -0.354110        -9.6358
  74   2.0000      -0.330291        -8.9877
  75   2.0000      -0.326404        -8.8819
  76   2.0000      -0.317304        -8.6343
  77   0.0000       0.072051         1.9606
  78   0.0000       0.101322         2.7571
  79   0.0000       0.122597         3.3360
  80   0.0000       0.129263         3.5174
  81   0.0000       0.133218         3.6250

MULLIKEN ATOMIC CHARGES
-----------------------
   0 C :   -0.282259
   1 C :    0.034854
   2 O :   -0.388169
   3 C :    0.483172
   4 O :   -0.409722
   5 C :   -0.266817
   6 C :    0.164681
   7 C :   -0.268537
   8 N :   -0.124791
   9 C :    0.215543
  10 S :   -0.440010
  11 N :   -0.207548
  12 C :    0.071225
  13 C :    0.024973
  14 C :   -0.179202
  15 C :   -0.130801
  16 C :   -0.277049
  17 C :    0.307436
  18 O :   -0.356221
  19 C :   -0.244125
  20 H :    0.097686
  21 H :    0.096668
  22 H :    0.114175
  23 H :    0.100057
  24 H :    0.105367
  25 H :    0.128870
  26 H :    0.134411
  27 H :    0.095045
  28 H :    0.197837
  29 H :    0.194535
  30 H :    0.150314
  31 H :    0.152705
  32 H :    0.162568
  33 H :    0.133082
  34 H :    0.241913
  35 H :    0.168134
Sum of atomic charges:    0.0000000

LOEWDIN ATOMIC CHARGES
----------------------
   0 C :    0.103862
   1 C :   -0.014421
   2 O :    0.283913
   3 C :   -0.414889
   4 O :    0.117446
   5 C :   -0.098236
   6 C :   -0.058093
   7 C :    0.131154
   8 N :    0.407057
   9 C :   -0.455722
  10 S :   -0.034925
  11 N :    0.396306
  12 C :   -0.052891
  13 C :   -0.037741
  14 C :    0.013511
  15 C :    0.041355
  16 C :   -0.002181
  17 C :   -0.190410
  18 O :    0.396605
  19 C :    0.029243
  20 H :   -0.029118
  21 H :   -0.027918
  22 H :   -0.023192
  23 H :   -0.032093
  24 H :   -0.024291
  25 H :   -0.005609
  26 H :   -0.003094
  27 H :   -0.023392
  28 H :   -0.057429
  29 H :   -0.065216
  30 H :   -0.008835
  31 H :   -0.029288
  32 H :   -0.019867
  33 H :   -0.034527
  34 H :   -0.152651
  35 H :   -0.024422

  Mayer bond orders larger than 0.100000
B(  0-C ,  1-C ) :   0.9813 B(  0-C , 20-H ) :   0.9739 B(  0-C , 21-H ) :   0.9740
B(  0-C , 22-H ) :   0.9745 B(  1-C ,  2-O ) :   0.8937 B(  1-C , 23-H ) :   0.9673
B(  1-C , 24-H ) :   0.9810 B(  2-O ,  3-C ) :   1.0963 B(  3-C ,  4-O ) :   2.0126
B(  3-C ,  5-C ) :   1.0668 B(  5-C ,  6-C ) :   1.6480 B(  5-C , 12-C ) :   0.9709
B(  6-C ,  7-C ) :   0.9668 B(  6-C ,  8-N ) :   1.1598 B(  7-C , 25-H ) :   0.9618
B(  7-C , 26-H ) :   0.9581 B(  7-C , 27-H ) :   0.9903 B(  8-N ,  9-C ) :   1.1831
B(  8-N , 28-H ) :   0.9476 B(  9-C , 10-S ) :   1.6052 B(  9-C , 11-N ) :   1.3075
B( 11-N , 12-C ) :   0.9700 B( 11-N , 29-H ) :   0.9524 B( 12-C , 13-C ) :   0.9411
B( 12-C , 30-H ) :   1.0013 B( 13-C , 14-C ) :   1.3515 B( 13-C , 19-C ) :   1.3781
B( 14-C , 15-C ) :   1.3942 B( 14-C , 31-H ) :   0.9724 B( 15-C , 16-C ) :   1.3620
B( 15-C , 32-H ) :   0.9705 B( 16-C , 17-C ) :   1.3295 B( 16-C , 33-H ) :   0.9843
B( 17-C , 18-O ) :   1.1141 B( 17-C , 19-C ) :   1.3721 B( 18-O , 34-H ) :   0.9788
B( 19-C , 35-H ) :   0.9576

MP2 TOTAL ENERGY:    -1274.334461249 Eh
FINAL SINGLE POINT ENERGY     -1274.334461248951

DIPOLE MOMENT
-------------
                                X             Y             Z
Electronic contribution:     10.33035       9.33131       6.99117
Nuclear contribution   :    -11.35258     -10.98173      -6.86979
                        -----------------------------------------
Total Dipole Moment    :     -1.02223      -1.65042       0.12138
                        -----------------------------------------
Magnitude (a.u.)       :      1.94514
Magnitude (Debye)      :      4.94416

Rotational constants in cm-1:     0.012186     0.008924     0.006387
Rotational constants in MHz :   365.324214   267.538543   191.481440

                             ****ORCA TERMINATED NORMALLY****
TOTAL RUN TIME: 0 days 1 hours 37 minutes 10 seconds 592 msec
