                         Program Version 4.2.0 -  RELEASE  -
|  1> ! ri-mp2 cc-pvtz cc-pvtz/c TightSCF  NoKeepInts
|  2>
|  3> %scf
|  4>   MaxCore 4096
|  5> end
|  6> *xyz  0  1
|  7>     C       14.4985924   16.0068966   16.4526627
|  8>     C       15.5275347   15.1422361   17.2029151
|  9>     O       16.7196742   14.9608121   16.4082215
| 10>     C       17.8557962   15.7318901   16.4580880
| 11>     O       18.9118781   15.2642150   16.0759828
| 12>     C       17.8477839   16.8717991   17.4173093
| 13>     C       17.3470289   18.0789825   17.0738354
| 14>     C       16.7633665   18.4672375   15.7324373
| 15>     N       17.4561622   19.1548172   17.9569668
| 16>     C       18.1327508   19.1190415   19.1486333
| 17>     S       18.2426142   20.4486719   20.1253169
| 18>     N       18.7177511   17.9245791   19.4923477
| 19>     C       18.6142285   16.6661174   18.7258171
| 20>     C       18.0233553   15.5349238   19.5635177
| 21>     C       18.4743066   14.2159261   19.3711852
| 22>     C       17.9294286   13.1556980   20.1139872
| 23>     C       16.9232580   13.4142966   21.0598071
| 24>     C       16.4684785   14.7252055   21.2539932
| 25>     O       15.4880684   14.9768350   22.1570460
| 26>     C       17.0108450   15.7792731   20.5116118
| 27>     H       14.6610231   17.0714573   16.6409868
| 28>     H       13.4857921   15.7692518   16.8007717
| 29>     H       14.5371962   15.8192481   15.3721001
| 30>     H       15.7361005   15.5590602   18.1936111
| 31>     H       15.0813245   14.1514041   17.3590103
| 32>     H       16.5455282   17.5974368   15.1010999
| 33>     H       17.4717293   19.0949393   15.1766602
| 34>     H       15.8316421   19.0344550   15.8479080
| 35>     H       17.0601968   20.0483147   17.7100694
| 36>     H       19.2012979   17.9267505   20.3817812
| 37>     H       19.6374147   16.3676176   18.4524164
| 38>     H       19.2437964   14.0098064   18.6294404
| 39>     H       18.2856190   12.1396693   19.9511444
| 40>     H       16.4988804   12.5974762   21.6344713
| 41>     H       15.2831902   14.1422057   22.6054564
| 42>     H       16.6333666   16.7834528   20.6753904
| 43> *
| 44>
| 45>                          ****END OF INPUT****

CARTESIAN COORDINATES (ANGSTROEM)
---------------------------------
  C     14.498592   16.006897   16.452663
  C     15.527535   15.142236   17.202915
  O     16.719674   14.960812   16.408221
  C     17.855796   15.731890   16.458088
  O     18.911878   15.264215   16.075983
  C     17.847784   16.871799   17.417309
  C     17.347029   18.078982   17.073835
  C     16.763367   18.467237   15.732437
  N     17.456162   19.154817   17.956967
  C     18.132751   19.119041   19.148633
  S     18.242614   20.448672   20.125317
  N     18.717751   17.924579   19.492348
  C     18.614228   16.666117   18.725817
  C     18.023355   15.534924   19.563518
  C     18.474307   14.215926   19.371185
  C     17.929429   13.155698   20.113987
  C     16.923258   13.414297   21.059807
  C     16.468478   14.725205   21.253993
  O     15.488068   14.976835   22.157046
  C     17.010845   15.779273   20.511612
  H     14.661023   17.071457   16.640987
  H     13.485792   15.769252   16.800772
  H     14.537196   15.819248   15.372100
  H     15.736100   15.559060   18.193611
  H     15.081324   14.151404   17.359010
  H     16.545528   17.597437   15.101100
  H     17.471729   19.094939   15.176660
  H     15.831642   19.034455   15.847908
  H     17.060197   20.048315   17.710069
  H     19.201298   17.926750   20.381781
  H     19.637415   16.367618   18.452416
  H     19.243796   14.009806   18.629440
  H     18.285619   12.139669   19.951144
  H     16.498880   12.597476   21.634471
  H     15.283190   14.142206   22.605456
  H     16.633367   16.783453   20.675390

 Total Charge           Charge          ....    0
 Multiplicity           Mult            ....    1
 Number of Electrons    NEL             ....  154
 Basis Dimension        Dim             ....  828

ORBITAL ENERGIES
----------------

  NO   OCC          E(Eh)            E(eV)
   0   2.0000     -91.889880     -2500.4508
   1   2.0000     -20.601646      -560.5993
   2   2.0000     -20.599307      -560.5356
   3   2.0000     -20.551854      -559.2444
   4   2.0000     -15.625326      -425.1867
   5   2.0000     -15.612547      -424.8390
   6   2.0000     -11.398730      -310.1752
   7   2.0000     -11.386906      -309.8535
   8   2.0000     -11.326663      -308.2142
   9   2.0000     -11.319141      -308.0095
  10   2.0000     -11.318159      -307.9828
  11   2.0000     -11.302250      -307.5499
  12   2.0000     -11.267214      -306.5965
  13   2.0000     -11.266924      -306.5886
  14   2.0000     -11.264998      -306.5362
  15   2.0000     -11.259465      -306.3856
  16   2.0000     -11.248062      -306.0753
  17   2.0000     -11.244025      -305.9655
  18   2.0000     -11.241304      -305.8914
  19   2.0000     -11.235291      -305.7278
  20   2.0000      -8.895002      -242.0453
  21   2.0000      -6.576594      -178.9582
  22   2.0000      -6.574564      -178.9030
  23   2.0000      -6.573992      -178.8874
  24   2.0000      -1.447146       -39.3788
  25   2.0000      -1.421453       -38.6797
  26   2.0000      -1.359142       -36.9841
  27   2.0000      -1.339635       -36.4533
  28   2.0000      -1.240236       -33.7485
  29   2.0000      -1.163243       -31.6534
  30   2.0000      -1.126274       -30.6475
  31   2.0000      -1.050278       -28.5795
  32   2.0000      -1.040150       -28.3039
  33   2.0000      -1.021221       -27.7888
  34   2.0000      -1.005288       -27.3553
  35   2.0000      -0.990348       -26.9487
  36   2.0000      -0.928734       -25.2721
  37   2.0000      -0.893589       -24.3158
  38   2.0000      -0.853207       -23.2169
  39   2.0000      -0.842374       -22.9222
  40   2.0000      -0.838398       -22.8140
  41   2.0000      -0.836188       -22.7538
  42   2.0000      -0.755217       -20.5505
  43   2.0000      -0.735084       -20.0026
  44   2.0000      -0.731742       -19.9117
  45   2.0000      -0.699058       -19.0223
  46   2.0000      -0.690656       -18.7937
  47   2.0000      -0.679933       -18.5019
  48   2.0000      -0.677298       -18.4302
  49   2.0000      -0.666497       -18.1363
  50   2.0000      -0.654771       -17.8172
  51   2.0000      -0.639690       -17.4068
  52   2.0000      -0.633572       -17.2404
  53   2.0000      -0.624080       -16.9821
  54   2.0000      -0.611234       -16.6325
  55   2.0000      -0.608310       -16.5530
  56   2.0000      -0.604916       -16.4606
  57   2.0000      -0.587445       -15.9852
  58   2.0000      -0.579082       -15.7576
  59   2.0000      -0.574552       -15.6344
  60   2.0000      -0.567699       -15.4479
  61   2.0000      -0.559254       -15.2181
  62   2.0000      -0.539742       -14.6871
  63   2.0000      -0.537361       -14.6223
  64   2.0000      -0.523859       -14.2549
  65   2.0000      -0.515856       -14.0371
  66   2.0000      -0.503854       -13.7106
  67   2.0000      -0.498879       -13.5752
  68   2.0000      -0.488734       -13.2991
  69   2.0000      -0.470606       -12.8059
  70   2.0000      -0.452362       -12.3094
  71   2.0000      -0.450165       -12.2496
  72   2.0000      -0.357225        -9.7206
  73   2.0000      -0.352759        -9.5990
  74   2.0000      -0.329693        -8.9714
  75   2.0000      -0.326808        -8.8929
  76   2.0000      -0.319238        -8.6869
  77   0.0000       0.091864         2.4998
  78   0.0000       0.103278         2.8103
  79   0.0000       0.115773         3.1504
  80   0.0000       0.126126         3.4321
  81   0.0000       0.128326         3.4919

MULLIKEN ATOMIC CHARGES
-----------------------
   0 C :   -0.318199
   1 C :    0.037182
   2 O :   -0.319701
   3 C :    0.389351
   4 O :   -0.377528
   5 C :   -0.179411
   6 C :    0.133781
   7 C :   -0.333813
   8 N :   -0.139499
   9 C :    0.211676
  10 S :   -0.442891
  11 N :   -0.231339
  12 C :    0.094870
  13 C :    0.001336
  14 C :   -0.201905
  15 C :   -0.133747
  16 C :   -0.272999
  17 C :    0.317371
  18 O :   -0.355442
  19 C :   -0.269982
  20 H :    0.092575
  21 H :    0.114808
  22 H :    0.113621
  23 H :    0.101715
  24 H :    0.122863
  25 H :    0.121321
  26 H :    0.152022
  27 H :    0.114409
  28 H :    0.195496
  29 H :    0.204024
  30 H :    0.165140
  31 H :    0.169726
  32 H :    0.165266
  33 H :    0.133479
  34 H :    0.241698
  35 H :    0.182727
Sum of atomic charges:   -0.0000000

LOEWDIN ATOMIC CHARGES
----------------------
   0 C :    0.103359
   1 C :   -0.016670
   2 O :    0.304453
   3 C :   -0.418049
   4 O :    0.125443
   5 C :   -0.079596
   6 C :   -0.107171
   7 C :    0.123277
   8 N :    0.401332
   9 C :   -0.454898
  10 S :   -0.038918
  11 N :    0.397467
  12 C :   -0.043099
  13 C :   -0.043866
  14 C :    0.022367
  15 C :    0.046768
  16 C :    0.000015
  17 C :   -0.193416
  18 O :    0.395894
  19 C :    0.024595
  20 H :   -0.034511
  21 H :   -0.022473
  22 H :   -0.024615
  23 H :   -0.036296
  24 H :   -0.020126
  25 H :   -0.010100
  26 H :   -0.007891
  27 H :   -0.018167
  28 H :   -0.058314
  29 H :   -0.064052
  30 H :   -0.002458
  31 H :   -0.021163
  32 H :   -0.017574
  33 H :   -0.034249
  34 H :   -0.152546
  35 H :   -0.024753

  Mayer bond orders larger than 0.100000
B(  0-C ,  1-C ) :   0.9590 B(  0-C , 20-H ) :   0.9771 B(  0-C , 21-H ) :   0.9805
B(  0-C , 22-H ) :   0.9738 B(  1-C ,  2-O ) :   0.8944 B(  1-C , 23-H ) :   0.9585
B(  1-C , 24-H ) :   0.9859 B(  2-O ,  3-C ) :   1.1808 B(  3-C ,  4-O ) :   2.0985
B(  3-C ,  5-C ) :   0.9019 B(  5-C ,  6-C ) :   1.7027 B(  5-C , 12-C ) :   0.9486
B(  6-C ,  7-C ) :   0.9521 B(  6-C ,  8-N ) :   1.1066 B(  7-C , 25-H ) :   0.9799
B(  7-C , 26-H ) :   0.9634 B(  7-C , 27-H ) :   0.9714 B(  8-N ,  9-C ) :   1.2039
B(  8-N , 28-H ) :   0.9524 B(  9-C , 10-S ) :   1.6063 B(  9-C , 11-N ) :   1.2845
B( 11-N , 12-C ) :   0.9904 B( 11-N , 29-H ) :   0.9455 B( 12-C , 13-C ) :   0.9551
B( 12-C , 30-H ) :   0.9966 B( 13-C , 14-C ) :   1.3903 B( 13-C , 19-C ) :   1.3334
B( 14-C , 15-C ) :   1.4006 B( 14-C , 31-H ) :   0.9617 B( 15-C , 16-C ) :   1.3603
B( 15-C , 32-H ) :   0.9692 B( 16-C , 17-C ) :   1.3308 B( 16-C , 33-H ) :   0.9841
B( 17-C , 18-O ) :   1.1103 B( 17-C , 19-C ) :   1.3659 B( 18-O , 34-H ) :   0.9790
B( 19-C , 35-H ) :   0.9577

MP2 TOTAL ENERGY:    -1274.327534828 Eh
FINAL SINGLE POINT ENERGY     -1274.327534828024

DIPOLE MOMENT
-------------
                                X             Y             Z
Electronic contribution:     10.38823       5.07228       7.60325
Nuclear contribution   :    -11.87907      -6.28887      -7.87145
                        -----------------------------------------
Total Dipole Moment    :     -1.49084      -1.21659      -0.26820
                        -----------------------------------------
Magnitude (a.u.)       :      1.94284
Magnitude (Debye)      :      4.93831

Rotational constants in cm-1:     0.011810     0.009228     0.006729
Rotational constants in MHz :   354.055978   276.663146   201.739694

                             ****ORCA TERMINATED NORMALLY****
TOTAL RUN TIME: 0 days 1 hours 45 minutes 39 seconds 69 msec
