                         Program Version 5.0.0 -  RELEASE  -
|  1> ! ri-mp2 cc-pvtz cc-pvtz/c TightSCF NoKeepInts
|  2>
|  3> %scf
|  4>   MaxCore 4096
|  5> end
|  6> *xyz  0  1
|  7>     C       15.3929267   13.9584475   15.1232300
|  8>     C       15.6864664   14.1881720   16.6194950
|  9>     O       16.7630082   15.1337250   16.7583517
| 10>     C       16.5171944   16.4773472   16.6768603
| 11>     O       15.5283568   16.9291935   16.1250993
| 12>     C       17.4293446   17.2817998   17.5624060
| 13>     C       17.3667771   18.6360369   17.6319879
| 14>     C       16.4245680   19.5504927   16.8784977
| 15>     N       18.2663071   19.3391757   18.4389782
| 16>     C       19.3195744   18.7787529   19.1109482
| 17>     S       20.4006387   19.6950816   19.9639158
| 18>     N       19.4360930   17.4142394   19.0370412
| 19>     C       18.4520213   16.5104954   18.4137959
| 20>     C       17.7766476   15.6655938   19.4907448
| 21>     C       18.0183356   14.2808779   19.5663440
| 22>     C       17.3946186   13.4988970   20.5530772
| 23>     C       16.5244313   14.1065366   21.4742095
| 24>     C       16.2854498   15.4859544   21.4050799
| 25>     O       15.4469217   16.0757219   22.2939011
| 26>     C       16.9070380   16.2613726   20.4215135
| 27>     H       15.0064297   14.8684579   14.6482996
| 28>     H       14.6412011   13.1698624   14.9985407
| 29>     H       16.3026974   13.6513603   14.5929885
| 30>     H       14.7863556   14.5430562   17.1400267
| 31>     H       15.9866697   13.2346196   17.0724175
| 32>     H       15.3846612   19.3551475   17.1703892
| 33>     H       16.4985551   19.3766890   15.7974890
| 34>     H       16.6250981   20.6136254   17.0555278
| 35>     H       18.1967167   20.3421817   18.5037704
| 36>     H       20.2011615   17.0267534   19.5740148
| 37>     H       19.0051844   15.8392139   17.7419115
| 38>     H       18.6873586   13.8080670   18.8522956
| 39>     H       17.5870733   12.4285644   20.6026665
| 40>     H       16.0411302   13.5072634   22.2388167
| 41>     H       15.1459787   15.3909778   22.9098111
| 42>     H       16.7140095   17.3282462   20.3895571
| 43> *
| 44>
| 45>                          ****END OF INPUT****

CARTESIAN COORDINATES (ANGSTROEM)
---------------------------------
  C     15.392927   13.958447   15.123230
  C     15.686466   14.188172   16.619495
  O     16.763008   15.133725   16.758352
  C     16.517194   16.477347   16.676860
  O     15.528357   16.929194   16.125099
  C     17.429345   17.281800   17.562406
  C     17.366777   18.636037   17.631988
  C     16.424568   19.550493   16.878498
  N     18.266307   19.339176   18.438978
  C     19.319574   18.778753   19.110948
  S     20.400639   19.695082   19.963916
  N     19.436093   17.414239   19.037041
  C     18.452021   16.510495   18.413796
  C     17.776648   15.665594   19.490745
  C     18.018336   14.280878   19.566344
  C     17.394619   13.498897   20.553077
  C     16.524431   14.106537   21.474209
  C     16.285450   15.485954   21.405080
  O     15.446922   16.075722   22.293901
  C     16.907038   16.261373   20.421513
  H     15.006430   14.868458   14.648300
  H     14.641201   13.169862   14.998541
  H     16.302697   13.651360   14.592988
  H     14.786356   14.543056   17.140027
  H     15.986670   13.234620   17.072418
  H     15.384661   19.355148   17.170389
  H     16.498555   19.376689   15.797489
  H     16.625098   20.613625   17.055528
  H     18.196717   20.342182   18.503770
  H     20.201162   17.026753   19.574015
  H     19.005184   15.839214   17.741912
  H     18.687359   13.808067   18.852296
  H     17.587073   12.428564   20.602666
  H     16.041130   13.507263   22.238817
  H     15.145979   15.390978   22.909811
  H     16.714009   17.328246   20.389557

 Total Charge           Charge          ....    0
 Multiplicity           Mult            ....    1
 Number of Electrons    NEL             ....  154
 Basis Dimension        Dim             ....  828

ORBITAL ENERGIES
----------------

  NO   OCC          E(Eh)            E(eV)
   0   2.0000     -91.888873     -2500.4234
   1   2.0000     -20.597901      -560.4974
   2   2.0000     -20.596587      -560.4616
   3   2.0000     -20.543733      -559.0234
   4   2.0000     -15.629105      -425.2896
   5   2.0000     -15.608180      -424.7202
   6   2.0000     -11.395964      -310.0999
   7   2.0000     -11.383957      -309.7732
   8   2.0000     -11.335791      -308.4625
   9   2.0000     -11.313780      -307.8636
  10   2.0000     -11.309075      -307.7356
  11   2.0000     -11.297908      -307.4317
  12   2.0000     -11.259683      -306.3916
  13   2.0000     -11.259004      -306.3731
  14   2.0000     -11.255298      -306.2722
  15   2.0000     -11.252324      -306.1913
  16   2.0000     -11.242927      -305.9356
  17   2.0000     -11.238303      -305.8098
  18   2.0000     -11.238082      -305.8037
  19   2.0000     -11.220371      -305.3218
  20   2.0000      -8.893934      -242.0162
  21   2.0000      -6.575508      -178.9287
  22   2.0000      -6.573504      -178.8741
  23   2.0000      -6.572917      -178.8582
  24   2.0000      -1.450496       -39.4700
  25   2.0000      -1.416230       -38.5376
  26   2.0000      -1.355289       -36.8793
  27   2.0000      -1.340067       -36.4651
  28   2.0000      -1.238503       -33.7014
  29   2.0000      -1.157495       -31.4970
  30   2.0000      -1.120212       -30.4825
  31   2.0000      -1.042600       -28.3706
  32   2.0000      -1.034949       -28.1624
  33   2.0000      -1.015044       -27.6208
  34   2.0000      -0.995043       -27.0765
  35   2.0000      -0.983691       -26.7676
  36   2.0000      -0.922525       -25.1032
  37   2.0000      -0.891191       -24.2506
  38   2.0000      -0.847217       -23.0539
  39   2.0000      -0.837930       -22.8012
  40   2.0000      -0.833994       -22.6941
  41   2.0000      -0.819780       -22.3074
  42   2.0000      -0.756197       -20.5772
  43   2.0000      -0.731853       -19.9147
  44   2.0000      -0.722575       -19.6623
  45   2.0000      -0.695679       -18.9304
  46   2.0000      -0.688516       -18.7355
  47   2.0000      -0.680579       -18.5195
  48   2.0000      -0.670492       -18.2450
  49   2.0000      -0.653153       -17.7732
  50   2.0000      -0.647594       -17.6219
  51   2.0000      -0.645653       -17.5691
  52   2.0000      -0.631357       -17.1801
  53   2.0000      -0.608411       -16.5557
  54   2.0000      -0.606493       -16.5035
  55   2.0000      -0.599273       -16.3070
  56   2.0000      -0.598775       -16.2935
  57   2.0000      -0.580378       -15.7929
  58   2.0000      -0.573120       -15.5954
  59   2.0000      -0.570683       -15.5291
  60   2.0000      -0.563420       -15.3314
  61   2.0000      -0.538900       -14.6642
  62   2.0000      -0.536028       -14.5861
  63   2.0000      -0.524967       -14.2851
  64   2.0000      -0.520162       -14.1543
  65   2.0000      -0.513372       -13.9696
  66   2.0000      -0.500954       -13.6316
  67   2.0000      -0.498392       -13.5619
  68   2.0000      -0.486124       -13.2281
  69   2.0000      -0.464022       -12.6267
  70   2.0000      -0.455418       -12.3926
  71   2.0000      -0.445201       -12.1145
  72   2.0000      -0.354160        -9.6372
  73   2.0000      -0.349333        -9.5058
  74   2.0000      -0.328241        -8.9319
  75   2.0000      -0.321372        -8.7450
  76   2.0000      -0.316014        -8.5992
  77   0.0000       0.075068         2.0427
  78   0.0000       0.106373         2.8946
  79   0.0000       0.125227         3.4076
  80   0.0000       0.132485         3.6051
  81   0.0000       0.137897         3.7524

MULLIKEN ATOMIC CHARGES
-----------------------
   0 C :   -0.286595
   1 C :    0.045070
   2 O :   -0.361106
   3 C :    0.454611
   4 O :   -0.431450
   5 C :   -0.207133
   6 C :    0.151289
   7 C :   -0.273825
   8 N :   -0.121046
   9 C :    0.211685
  10 S :   -0.439946
  11 N :   -0.204567
  12 C :    0.056761
  13 C :    0.065477
  14 C :   -0.188472
  15 C :   -0.129803
  16 C :   -0.279776
  17 C :    0.315893
  18 O :   -0.356496
  19 C :   -0.269258
  20 H :    0.120375
  21 H :    0.092223
  22 H :    0.090198
  23 H :    0.094207
  24 H :    0.105428
  25 H :    0.132824
  26 H :    0.129369
  27 H :    0.095520
  28 H :    0.197334
  29 H :    0.194570
  30 H :    0.150008
  31 H :    0.149873
  32 H :    0.160988
  33 H :    0.130081
  34 H :    0.240738
  35 H :    0.164950
Sum of atomic charges:    0.0000000

LOEWDIN ATOMIC CHARGES
----------------------
   0 C :    0.104825
   1 C :   -0.014989
   2 O :    0.303438
   3 C :   -0.413035
   4 O :    0.102421
   5 C :   -0.094501
   6 C :   -0.059163
   7 C :    0.131258
   8 N :    0.406544
   9 C :   -0.456469
  10 S :   -0.035426
  11 N :    0.396362
  12 C :   -0.052338
  13 C :   -0.038011
  14 C :    0.014336
  15 C :    0.038535
  16 C :   -0.002193
  17 C :   -0.189495
  18 O :    0.395265
  19 C :    0.031157
  20 H :   -0.025556
  21 H :   -0.028944
  22 H :   -0.030070
  23 H :   -0.028021
  24 H :   -0.025962
  25 H :   -0.004609
  26 H :   -0.004315
  27 H :   -0.023297
  28 H :   -0.057584
  29 H :   -0.064653
  30 H :   -0.010474
  31 H :   -0.030202
  32 H :   -0.021462
  33 H :   -0.035668
  34 H :   -0.153901
  35 H :   -0.023801

  Mayer bond orders larger than 0.100000
B(  0-C ,  1-C ) :   0.9752 B(  0-C , 20-H ) :   0.9736 B(  0-C , 21-H ) :   0.9779
B(  0-C , 22-H ) :   0.9761 B(  1-C ,  2-O ) :   0.8900 B(  1-C , 23-H ) :   0.9734
B(  1-C , 24-H ) :   0.9816 B(  2-O ,  3-C ) :   1.1445 B(  3-C ,  4-O ) :   1.9607
B(  3-C ,  5-C ) :   1.0633 B(  5-C ,  6-C ) :   1.6547 B(  5-C , 12-C ) :   0.9732
B(  6-C ,  7-C ) :   0.9673 B(  6-C ,  8-N ) :   1.1622 B(  7-C , 25-H ) :   0.9596
B(  7-C , 26-H ) :   0.9611 B(  7-C , 27-H ) :   0.9909 B(  8-N ,  9-C ) :   1.1827
B(  8-N , 28-H ) :   0.9479 B(  9-C , 10-S ) :   1.6073 B(  9-C , 11-N ) :   1.3054
B( 11-N , 12-C ) :   0.9847 B( 11-N , 29-H ) :   0.9517 B( 12-C , 13-C ) :   0.9355
B( 12-C , 30-H ) :   1.0025 B( 13-C , 14-C ) :   1.3550 B( 13-C , 19-C ) :   1.3830
B( 14-C , 15-C ) :   1.3901 B( 14-C , 31-H ) :   0.9720 B( 15-C , 16-C ) :   1.3640
B( 15-C , 32-H ) :   0.9705 B( 16-C , 17-C ) :   1.3314 B( 16-C , 33-H ) :   0.9849
B( 17-C , 18-O ) :   1.1103 B( 17-C , 19-C ) :   1.3723 B( 18-O , 34-H ) :   0.9798
B( 19-C , 35-H ) :   0.9583

MP2 TOTAL ENERGY:    -1274.345171471 Eh
FINAL SINGLE POINT ENERGY     -1274.345171471360

DIPOLE MOMENT
-------------
                                X             Y             Z
Electronic contribution:     10.15491       9.84490       9.41160
Nuclear contribution   :    -11.24094     -11.47487      -9.67578
                        -----------------------------------------
Total Dipole Moment    :     -1.08603      -1.62997      -0.26418
                        -----------------------------------------
Magnitude (a.u.)       :      1.97638
Magnitude (Debye)      :      5.02355

Rotational constants in cm-1:     0.011396     0.008728     0.006070
Rotational constants in MHz :   341.651641   261.670663   181.982688

                             ****ORCA TERMINATED NORMALLY****
TOTAL RUN TIME: 0 days 2 hours 8 minutes 32 seconds 372 msec
