                         Program Version 4.2.0 -  RELEASE  -
|  1> ! ri-mp2 cc-pvtz cc-pvtz/c TightSCF  NoKeepInts
|  2>
|  3> %scf
|  4>   MaxCore 4096
|  5> end
|  6> *xyz  0  1
|  7>     C       15.1995996   14.9825053   17.2482669
|  8>     C       15.6713893   14.9496128   15.7792851
|  9>     O       16.7753741   15.8509642   15.5532279
| 10>     C       17.8629592   15.8273722   16.3767063
| 11>     O       18.4722331   14.7871955   16.5585133
| 12>     C       17.9005453   16.9485718   17.3774153
| 13>     C       17.3261172   18.1649391   17.1875514
| 14>     C       16.5536877   18.6498770   15.9778849
| 15>     N       17.4947154   19.1695842   18.1461247
| 16>     C       18.3603022   19.1003782   19.2059530
| 17>     S       18.6168232   20.3908505   20.2079052
| 18>     N       19.0029169   17.9024834   19.3916194
| 19>     C       18.6898023   16.6600029   18.6605087
| 20>     C       17.9401144   15.6842243   19.5640337
| 21>     C       18.3860226   14.3567160   19.7017128
| 22>     C       17.6935664   13.4487831   20.5201448
| 23>     C       16.5436340   13.8704680   21.2087558
| 24>     C       16.0945940   15.1909592   21.0736338
| 25>     O       14.9785571   15.5987587   21.7286416
| 26>     C       16.7860159   16.0925017   20.2585628
| 27>     H       15.9406996   14.5158884   17.9083664
| 28>     H       14.2638388   14.4215420   17.3587066
| 29>     H       15.0208170   16.0104926   17.5861611
| 30>     H       15.9745208   13.9251811   15.5238408
| 31>     H       14.8390851   15.2276626   15.1201792
| 32>     H       15.5597329   18.1876051   15.9407252
| 33>     H       17.0798393   18.3937815   15.0496410
| 34>     H       16.4138925   19.7377532   15.9748995
| 35>     H       17.0343344   20.0574756   18.0242565
| 36>     H       19.6152056   17.8673184   20.1965620
| 37>     H       19.6435627   16.1953577   18.3710161
| 38>     H       19.2640507   14.0222764   19.1540422
| 39>     H       18.0459807   12.4229094   20.6117210
| 40>     H       16.0042223   13.1715341   21.8392758
| 41>     H       14.6783648   14.8591003   22.2780109
| 42>     H       16.4198828   17.1093735   20.1701484
| 43> *
| 44>
| 45>                          ****END OF INPUT****

CARTESIAN COORDINATES (ANGSTROEM)
---------------------------------
  C     15.199600   14.982505   17.248267
  C     15.671389   14.949613   15.779285
  O     16.775374   15.850964   15.553228
  C     17.862959   15.827372   16.376706
  O     18.472233   14.787195   16.558513
  C     17.900545   16.948572   17.377415
  C     17.326117   18.164939   17.187551
  C     16.553688   18.649877   15.977885
  N     17.494715   19.169584   18.146125
  C     18.360302   19.100378   19.205953
  S     18.616823   20.390850   20.207905
  N     19.002917   17.902483   19.391619
  C     18.689802   16.660003   18.660509
  C     17.940114   15.684224   19.564034
  C     18.386023   14.356716   19.701713
  C     17.693566   13.448783   20.520145
  C     16.543634   13.870468   21.208756
  C     16.094594   15.190959   21.073634
  O     14.978557   15.598759   21.728642
  C     16.786016   16.092502   20.258563
  H     15.940700   14.515888   17.908366
  H     14.263839   14.421542   17.358707
  H     15.020817   16.010493   17.586161
  H     15.974521   13.925181   15.523841
  H     14.839085   15.227663   15.120179
  H     15.559733   18.187605   15.940725
  H     17.079839   18.393781   15.049641
  H     16.413892   19.737753   15.974899
  H     17.034334   20.057476   18.024256
  H     19.615206   17.867318   20.196562
  H     19.643563   16.195358   18.371016
  H     19.264051   14.022276   19.154042
  H     18.045981   12.422909   20.611721
  H     16.004222   13.171534   21.839276
  H     14.678365   14.859100   22.278011
  H     16.419883   17.109374   20.170148

 Total Charge           Charge          ....    0
 Multiplicity           Mult            ....    1
 Number of Electrons    NEL             ....  154
 Basis Dimension        Dim             ....  828

ORBITAL ENERGIES
----------------

  NO   OCC          E(Eh)            E(eV)
   0   2.0000     -91.890107     -2500.4569
   1   2.0000     -20.595010      -560.4187
   2   2.0000     -20.583915      -560.1168
   3   2.0000     -20.552005      -559.2485
   4   2.0000     -15.630711      -425.3333
   5   2.0000     -15.608565      -424.7306
   6   2.0000     -11.395141      -310.0776
   7   2.0000     -11.384988      -309.8013
   8   2.0000     -11.337556      -308.5106
   9   2.0000     -11.311007      -307.7882
  10   2.0000     -11.308125      -307.7097
  11   2.0000     -11.302593      -307.5592
  12   2.0000     -11.261791      -306.4489
  13   2.0000     -11.261092      -306.4299
  14   2.0000     -11.256616      -306.3081
  15   2.0000     -11.251429      -306.1669
  16   2.0000     -11.241129      -305.8867
  17   2.0000     -11.236445      -305.7592
  18   2.0000     -11.233719      -305.6850
  19   2.0000     -11.226450      -305.4872
  20   2.0000      -8.895156      -242.0495
  21   2.0000      -6.576729      -178.9619
  22   2.0000      -6.574725      -178.9074
  23   2.0000      -6.574135      -178.8913
  24   2.0000      -1.449434       -39.4411
  25   2.0000      -1.414807       -38.4989
  26   2.0000      -1.354240       -36.8507
  27   2.0000      -1.341520       -36.5046
  28   2.0000      -1.238981       -33.7144
  29   2.0000      -1.155405       -31.4402
  30   2.0000      -1.121139       -30.5078
  31   2.0000      -1.043689       -28.4002
  32   2.0000      -1.031670       -28.0732
  33   2.0000      -1.013036       -27.5661
  34   2.0000      -1.000581       -27.2272
  35   2.0000      -0.986520       -26.8446
  36   2.0000      -0.924173       -25.1480
  37   2.0000      -0.894816       -24.3492
  38   2.0000      -0.849580       -23.1183
  39   2.0000      -0.838680       -22.8216
  40   2.0000      -0.831430       -22.6244
  41   2.0000      -0.816912       -22.2293
  42   2.0000      -0.748320       -20.3628
  43   2.0000      -0.733568       -19.9614
  44   2.0000      -0.727608       -19.7992
  45   2.0000      -0.693554       -18.8726
  46   2.0000      -0.687148       -18.6983
  47   2.0000      -0.676805       -18.4168
  48   2.0000      -0.672105       -18.2889
  49   2.0000      -0.660401       -17.9704
  50   2.0000      -0.653846       -17.7921
  51   2.0000      -0.646240       -17.5851
  52   2.0000      -0.636854       -17.3297
  53   2.0000      -0.616337       -16.7714
  54   2.0000      -0.602738       -16.4013
  55   2.0000      -0.602669       -16.3995
  56   2.0000      -0.598980       -16.2991
  57   2.0000      -0.581058       -15.8114
  58   2.0000      -0.575496       -15.6600
  59   2.0000      -0.562836       -15.3155
  60   2.0000      -0.553904       -15.0725
  61   2.0000      -0.547692       -14.9035
  62   2.0000      -0.540291       -14.7021
  63   2.0000      -0.530931       -14.4474
  64   2.0000      -0.520687       -14.1686
  65   2.0000      -0.512128       -13.9357
  66   2.0000      -0.499442       -13.5905
  67   2.0000      -0.492292       -13.3960
  68   2.0000      -0.480817       -13.0837
  69   2.0000      -0.464200       -12.6315
  70   2.0000      -0.456002       -12.4084
  71   2.0000      -0.449689       -12.2367
  72   2.0000      -0.356110        -9.6902
  73   2.0000      -0.346713        -9.4345
  74   2.0000      -0.329177        -8.9574
  75   2.0000      -0.319147        -8.6844
  76   2.0000      -0.316870        -8.6225
  77   0.0000       0.068902         1.8749
  78   0.0000       0.107674         2.9300
  79   0.0000       0.118821         3.2333
  80   0.0000       0.132807         3.6139
  81   0.0000       0.137900         3.7525

MULLIKEN ATOMIC CHARGES
-----------------------
   0 C :   -0.341686
   1 C :    0.041537
   2 O :   -0.384736
   3 C :    0.470544
   4 O :   -0.406392
   5 C :   -0.199774
   6 C :    0.145196
   7 C :   -0.284346
   8 N :   -0.122977
   9 C :    0.193918
  10 S :   -0.435877
  11 N :   -0.196938
  12 C :    0.042745
  13 C :    0.033928
  14 C :   -0.162424
  15 C :   -0.136043
  16 C :   -0.278435
  17 C :    0.312287
  18 O :   -0.360393
  19 C :   -0.266001
  20 H :    0.129363
  21 H :    0.116707
  22 H :    0.102202
  23 H :    0.112235
  24 H :    0.110951
  25 H :    0.119199
  26 H :    0.131969
  27 H :    0.106049
  28 H :    0.197449
  29 H :    0.193186
  30 H :    0.155697
  31 H :    0.159118
  32 H :    0.161005
  33 H :    0.130576
  34 H :    0.240731
  35 H :    0.169432
Sum of atomic charges:   -0.0000000

LOEWDIN ATOMIC CHARGES
----------------------
   0 C :    0.104757
   1 C :   -0.017626
   2 O :    0.285008
   3 C :   -0.418320
   4 O :    0.121693
   5 C :   -0.093672
   6 C :   -0.068170
   7 C :    0.125906
   8 N :    0.405631
   9 C :   -0.459692
  10 S :   -0.033838
  11 N :    0.397704
  12 C :   -0.045691
  13 C :   -0.041542
  14 C :    0.020413
  15 C :    0.040719
  16 C :   -0.002324
  17 C :   -0.193661
  18 O :    0.394095
  19 C :    0.030916
  20 H :   -0.021480
  21 H :   -0.023803
  22 H :   -0.031596
  23 H :   -0.026320
  24 H :   -0.024642
  25 H :   -0.011986
  26 H :   -0.006210
  27 H :   -0.020007
  28 H :   -0.058768
  29 H :   -0.063782
  30 H :   -0.003576
  31 H :   -0.024297
  32 H :   -0.020296
  33 H :   -0.035673
  34 H :   -0.154228
  35 H :   -0.025640

  Mayer bond orders larger than 0.100000
B(  0-C ,  1-C ) :   0.9582 B(  0-C , 20-H ) :   0.9662 B(  0-C , 21-H ) :   0.9769
B(  0-C , 22-H ) :   0.9713 B(  1-C ,  2-O ) :   0.8929 B(  1-C , 23-H ) :   0.9854
B(  1-C , 24-H ) :   0.9829 B(  2-O ,  3-C ) :   1.0888 B(  3-C ,  4-O ) :   2.0184
B(  3-C ,  5-C ) :   1.0361 B(  5-C ,  6-C ) :   1.6574 B(  5-C , 12-C ) :   0.9652
B(  6-C ,  7-C ) :   0.9558 B(  6-C ,  8-N ) :   1.1399 B(  7-C , 25-H ) :   0.9647
B(  7-C , 26-H ) :   0.9658 B(  7-C , 27-H ) :   0.9901 B(  8-N ,  9-C ) :   1.1783
B(  8-N , 28-H ) :   0.9488 B(  9-C , 10-S ) :   1.6155 B(  9-C , 11-N ) :   1.3016
B( 11-N , 12-C ) :   0.9883 B( 11-N , 29-H ) :   0.9525 B( 12-C , 13-C ) :   0.9453
B( 12-C , 30-H ) :   0.9994 B( 13-C , 14-C ) :   1.3838 B( 13-C , 19-C ) :   1.3601
B( 14-C , 15-C ) :   1.3944 B( 14-C , 31-H ) :   0.9623 B( 15-C , 16-C ) :   1.3624
B( 15-C , 32-H ) :   0.9713 B( 16-C , 17-C ) :   1.3308 B( 16-C , 33-H ) :   0.9851
B( 17-C , 18-O ) :   1.1097 B( 17-C , 19-C ) :   1.3757 B( 18-O , 34-H ) :   0.9802
B( 19-C , 35-H ) :   0.9583

MP2 TOTAL ENERGY:    -1274.330019563 Eh
FINAL SINGLE POINT ENERGY     -1274.330019562789

DIPOLE MOMENT
-------------
                                X             Y             Z
Electronic contribution:      9.83866       8.23649       6.23929
Nuclear contribution   :    -11.22881      -9.41299      -6.94994
                        -----------------------------------------
Total Dipole Moment    :     -1.39014      -1.17651      -0.71066
                        -----------------------------------------
Magnitude (a.u.)       :      1.95492
Magnitude (Debye)      :      4.96900

Rotational constants in cm-1:     0.011525     0.009797     0.006765
Rotational constants in MHz :   345.517213   293.707317   202.819154

                             ****ORCA TERMINATED NORMALLY****
TOTAL RUN TIME: 0 days 1 hours 48 minutes 7 seconds 572 msec
