                         Program Version 4.2.0 -  RELEASE  -
|  1> ! ri-mp2 cc-pvtz cc-pvtz/c TightSCF  NoKeepInts
|  2>
|  3> %scf
|  4>   MaxCore 4096
|  5> end
|  6> *xyz  0  1
|  7>     C       14.8354740   15.5603437   17.1684647
|  8>     C       15.8052494   14.7857871   16.2560406
|  9>     O       16.7786238   15.6857449   15.6899016
| 10>     C       17.9624709   15.8478477   16.3503439
| 11>     O       18.7156449   14.8981571   16.4777208
| 12>     C       17.9331871   16.9517266   17.3636030
| 13>     C       17.3180997   18.1407679   17.1481914
| 14>     C       16.6000266   18.5865506   15.8914702
| 15>     N       17.3988730   19.1493017   18.1127976
| 16>     C       18.2094829   19.1078579   19.2171475
| 17>     S       18.3509037   20.3975889   20.2424519
| 18>     N       18.8975051   17.9388770   19.4292945
| 19>     C       18.6962397   16.6907096   18.6672645
| 20>     C       17.9887655   15.6392247   19.5211737
| 21>     C       18.4561248   14.3119981   19.5438071
| 22>     C       17.8044543   13.3335387   20.3127866
| 23>     C       16.6736298   13.6832297   21.0695724
| 24>     C       16.2043214   15.0032739   21.0521632
| 25>     O       15.1069122   15.3429932   21.7739276
| 26>     C       16.8558066   15.9750587   20.2862818
| 27>     H       15.3644406   16.0564693   17.9878845
| 28>     H       14.1036751   14.8739077   17.6115231
| 29>     H       14.2849118   16.3169191   16.5974573
| 30>     H       16.2974986   13.9806676   16.8199962
| 31>     H       15.2300191   14.3218533   15.4445299
| 32>     H       15.5732686   18.2043729   15.8701340
| 33>     H       17.1117846   18.2200589   14.9927705
| 34>     H       16.5527887   19.6790404   15.8050900
| 35>     H       16.9052926   20.0164007   17.9715890
| 36>     H       19.4697249   17.9265526   20.2639735
| 37>     H       19.6898936   16.3010290   18.4019177
| 38>     H       19.3221614   14.0339332   18.9472467
| 39>     H       18.1748357   12.3098355   20.3152319
| 40>     H       16.1657377   12.9301212   21.6628909
| 41>     H       14.8369781   14.5605767   22.2779850
| 42>     H       16.4721931   16.9896842   20.2893755
| 43> *
| 44>
| 45>                          ****END OF INPUT****

CARTESIAN COORDINATES (ANGSTROEM)
---------------------------------
  C     14.835474   15.560344   17.168465
  C     15.805249   14.785787   16.256041
  O     16.778624   15.685745   15.689902
  C     17.962471   15.847848   16.350344
  O     18.715645   14.898157   16.477721
  C     17.933187   16.951727   17.363603
  C     17.318100   18.140768   17.148191
  C     16.600027   18.586551   15.891470
  N     17.398873   19.149302   18.112798
  C     18.209483   19.107858   19.217147
  S     18.350904   20.397589   20.242452
  N     18.897505   17.938877   19.429295
  C     18.696240   16.690710   18.667265
  C     17.988765   15.639225   19.521174
  C     18.456125   14.311998   19.543807
  C     17.804454   13.333539   20.312787
  C     16.673630   13.683230   21.069572
  C     16.204321   15.003274   21.052163
  O     15.106912   15.342993   21.773928
  C     16.855807   15.975059   20.286282
  H     15.364441   16.056469   17.987884
  H     14.103675   14.873908   17.611523
  H     14.284912   16.316919   16.597457
  H     16.297499   13.980668   16.819996
  H     15.230019   14.321853   15.444530
  H     15.573269   18.204373   15.870134
  H     17.111785   18.220059   14.992771
  H     16.552789   19.679040   15.805090
  H     16.905293   20.016401   17.971589
  H     19.469725   17.926553   20.263973
  H     19.689894   16.301029   18.401918
  H     19.322161   14.033933   18.947247
  H     18.174836   12.309836   20.315232
  H     16.165738   12.930121   21.662891
  H     14.836978   14.560577   22.277985
  H     16.472193   16.989684   20.289375

 Total Charge           Charge          ....    0
 Multiplicity           Mult            ....    1
 Number of Electrons    NEL             ....  154
 Basis Dimension        Dim             ....  828

ORBITAL ENERGIES
----------------

  NO   OCC          E(Eh)            E(eV)
   0   2.0000     -91.890625     -2500.4710
   1   2.0000     -20.596652      -560.4634
   2   2.0000     -20.582133      -560.0683
   3   2.0000     -20.555714      -559.3494
   4   2.0000     -15.630268      -425.3212
   5   2.0000     -15.609782      -424.7638
   6   2.0000     -11.394913      -310.0713
   7   2.0000     -11.386002      -309.8289
   8   2.0000     -11.335015      -308.4414
   9   2.0000     -11.313013      -307.8427
  10   2.0000     -11.310644      -307.7783
  11   2.0000     -11.301010      -307.5161
  12   2.0000     -11.261254      -306.4343
  13   2.0000     -11.261191      -306.4326
  14   2.0000     -11.259597      -306.3892
  15   2.0000     -11.253174      -306.2144
  16   2.0000     -11.242760      -305.9311
  17   2.0000     -11.238822      -305.8239
  18   2.0000     -11.235280      -305.7275
  19   2.0000     -11.227616      -305.5190
  20   2.0000      -8.895683      -242.0638
  21   2.0000      -6.577258      -178.9763
  22   2.0000      -6.575250      -178.9217
  23   2.0000      -6.574662      -178.9056
  24   2.0000      -1.451043       -39.4849
  25   2.0000      -1.416457       -38.5438
  26   2.0000      -1.355475       -36.8843
  27   2.0000      -1.341380       -36.5008
  28   2.0000      -1.239425       -33.7265
  29   2.0000      -1.157169       -31.4882
  30   2.0000      -1.122550       -30.5461
  31   2.0000      -1.045185       -28.4409
  32   2.0000      -1.033164       -28.1138
  33   2.0000      -1.015071       -27.6215
  34   2.0000      -1.001032       -27.2395
  35   2.0000      -0.987915       -26.8825
  36   2.0000      -0.925063       -25.1723
  37   2.0000      -0.888831       -24.1863
  38   2.0000      -0.849654       -23.1203
  39   2.0000      -0.839883       -22.8544
  40   2.0000      -0.833444       -22.6792
  41   2.0000      -0.822435       -22.3796
  42   2.0000      -0.755153       -20.5488
  43   2.0000      -0.735755       -20.0209
  44   2.0000      -0.728996       -19.8370
  45   2.0000      -0.695495       -18.9254
  46   2.0000      -0.686927       -18.6922
  47   2.0000      -0.677481       -18.4352
  48   2.0000      -0.675579       -18.3834
  49   2.0000      -0.660691       -17.9783
  50   2.0000      -0.654139       -17.8000
  51   2.0000      -0.646250       -17.5854
  52   2.0000      -0.638153       -17.3650
  53   2.0000      -0.608017       -16.5450
  54   2.0000      -0.604068       -16.4375
  55   2.0000      -0.600629       -16.3439
  56   2.0000      -0.591256       -16.0889
  57   2.0000      -0.587858       -15.9964
  58   2.0000      -0.575794       -15.6681
  59   2.0000      -0.570710       -15.5298
  60   2.0000      -0.562983       -15.3195
  61   2.0000      -0.551807       -15.0154
  62   2.0000      -0.545631       -14.8474
  63   2.0000      -0.522635       -14.2216
  64   2.0000      -0.518296       -14.1036
  65   2.0000      -0.512706       -13.9514
  66   2.0000      -0.501050       -13.6343
  67   2.0000      -0.496352       -13.5064
  68   2.0000      -0.483085       -13.1454
  69   2.0000      -0.464862       -12.6495
  70   2.0000      -0.456637       -12.4257
  71   2.0000      -0.452576       -12.3152
  72   2.0000      -0.355658        -9.6779
  73   2.0000      -0.348412        -9.4808
  74   2.0000      -0.329800        -8.9743
  75   2.0000      -0.320791        -8.7292
  76   2.0000      -0.317736        -8.6460
  77   0.0000       0.068820         1.8727
  78   0.0000       0.104751         2.8504
  79   0.0000       0.119751         3.2586
  80   0.0000       0.131115         3.5678
  81   0.0000       0.133969         3.6455

MULLIKEN ATOMIC CHARGES
-----------------------
   0 C :   -0.319441
   1 C :    0.045303
   2 O :   -0.380695
   3 C :    0.475621
   4 O :   -0.397748
   5 C :   -0.228879
   6 C :    0.159789
   7 C :   -0.283686
   8 N :   -0.125248
   9 C :    0.189945
  10 S :   -0.435620
  11 N :   -0.206374
  12 C :    0.061425
  13 C :    0.051504
  14 C :   -0.192149
  15 C :   -0.136173
  16 C :   -0.278344
  17 C :    0.325370
  18 O :   -0.358543
  19 C :   -0.301829
  20 H :    0.110659
  21 H :    0.118005
  22 H :    0.095971
  23 H :    0.105035
  24 H :    0.112252
  25 H :    0.125126
  26 H :    0.126455
  27 H :    0.108332
  28 H :    0.198083
  29 H :    0.195462
  30 H :    0.160071
  31 H :    0.167048
  32 H :    0.163037
  33 H :    0.131360
  34 H :    0.240653
  35 H :    0.178223
Sum of atomic charges:   -0.0000000

LOEWDIN ATOMIC CHARGES
----------------------
   0 C :    0.105181
   1 C :   -0.012486
   2 O :    0.281836
   3 C :   -0.417008
   4 O :    0.131039
   5 C :   -0.093949
   6 C :   -0.072999
   7 C :    0.127758
   8 N :    0.405372
   9 C :   -0.458865
  10 S :   -0.034169
  11 N :    0.397052
  12 C :   -0.044749
  13 C :   -0.041717
  14 C :    0.020777
  15 C :    0.040881
  16 C :   -0.002321
  17 C :   -0.193637
  18 O :    0.394561
  19 C :    0.028804
  20 H :   -0.033958
  21 H :   -0.022429
  22 H :   -0.033821
  23 H :   -0.025990
  24 H :   -0.023395
  25 H :   -0.012949
  26 H :   -0.007067
  27 H :   -0.018403
  28 H :   -0.058194
  29 H :   -0.063906
  30 H :   -0.003285
  31 H :   -0.023604
  32 H :   -0.019911
  33 H :   -0.035463
  34 H :   -0.153844
  35 H :   -0.025142

  Mayer bond orders larger than 0.100000
B(  0-C ,  1-C ) :   0.9617 B(  0-C , 20-H ) :   0.9702 B(  0-C , 21-H ) :   0.9785
B(  0-C , 22-H ) :   0.9795 B(  1-C ,  2-O ) :   0.8886 B(  1-C , 23-H ) :   0.9724
B(  1-C , 24-H ) :   0.9849 B(  2-O ,  3-C ) :   1.0957 B(  3-C ,  4-O ) :   2.0351
B(  3-C ,  5-C ) :   1.0083 B(  5-C ,  6-C ) :   1.6641 B(  5-C , 12-C ) :   0.9560
B(  6-C ,  7-C ) :   0.9539 B(  6-C ,  8-N ) :   1.1360 B(  7-C , 25-H ) :   0.9629
B(  7-C , 26-H ) :   0.9694 B(  7-C , 27-H ) :   0.9870 B(  8-N ,  9-C ) :   1.1825
B(  8-N , 28-H ) :   0.9497 B(  9-C , 10-S ) :   1.6168 B(  9-C , 11-N ) :   1.2950
B( 11-N , 12-C ) :   0.9862 B( 11-N , 29-H ) :   0.9514 B( 12-C , 13-C ) :   0.9491
B( 12-C , 30-H ) :   0.9980 B( 13-C , 14-C ) :   1.3840 B( 13-C , 19-C ) :   1.3421
B( 14-C , 15-C ) :   1.3981 B( 14-C , 31-H ) :   0.9595 B( 15-C , 16-C ) :   1.3615
B( 15-C , 32-H ) :   0.9703 B( 16-C , 17-C ) :   1.3313 B( 16-C , 33-H ) :   0.9847
B( 17-C , 18-O ) :   1.1111 B( 17-C , 19-C ) :   1.3671 B( 18-O , 34-H ) :   0.9802
B( 19-C , 35-H ) :   0.9568

MP2 TOTAL ENERGY:    -1274.324196997 Eh
FINAL SINGLE POINT ENERGY     -1274.324196997124

DIPOLE MOMENT
-------------
                                X             Y             Z
Electronic contribution:     10.10543       7.22218       6.16747
Nuclear contribution   :    -11.36395      -8.46598      -6.77756
                        -----------------------------------------
Total Dipole Moment    :     -1.25852      -1.24380      -0.61009
                        -----------------------------------------
Magnitude (a.u.)       :      1.87166
Magnitude (Debye)      :      4.75738

Rotational constants in cm-1:     0.011719     0.009688     0.006915
Rotational constants in MHz :   351.332810   290.449238   207.319411

                             ****ORCA TERMINATED NORMALLY****
TOTAL RUN TIME: 0 days 1 hours 49 minutes 32 seconds 526 msec
