                         Program Version 5.0.0 -  RELEASE  -
|  1> ! ri-mp2 cc-pvtz cc-pvtz/c TightSCF NoKeepInts
|  2>
|  3> %scf
|  4>   MaxCore 4096
|  5> end
|  6> *xyz  0  1
|  7>     C       15.8841315   13.1451708   16.0398384
|  8>     C       15.4977739   14.5162464   16.6186512
|  9>     O       16.6707012   15.3460313   16.5723963
| 10>     C       16.5221138   16.7028667   16.5276208
| 11>     O       15.5730371   17.2298552   15.9727963
| 12>     C       17.4605372   17.4167926   17.4617167
| 13>     C       17.4808462   18.7689817   17.5775612
| 14>     C       16.6177283   19.7654003   16.8334237
| 15>     N       18.3990772   19.3860400   18.4323595
| 16>     C       19.3919389   18.7369948   19.1164261
| 17>     S       20.4996217   19.5531281   20.0344620
| 18>     N       19.4244771   17.3709723   18.9985117
| 19>     C       18.4100092   16.5529170   18.3093031
| 20>     C       17.6549526   15.7046460   19.3291980
| 21>     C       17.8262155   14.3077737   19.3601950
| 22>     C       17.1237772   13.5215746   20.2888350
| 23>     C       16.2461273   14.1372225   21.1974395
| 24>     C       16.0782484   15.5286015   21.1739031
| 25>     O       15.2323566   16.1259690   22.0504839
| 26>     C       16.7771862   16.3081360   20.2471452
| 27>     H       15.0204295   12.4693047   16.0437180
| 28>     H       16.6830222   12.6861237   16.6350630
| 29>     H       16.2356491   13.2478873   15.0055706
| 30>     H       14.6890648   14.9381193   16.0062348
| 31>     H       15.1397688   14.4180770   17.6522063
| 32>     H       15.5606314   19.6291312   17.0955761
| 33>     H       16.7065864   19.6207545   15.7492152
| 34>     H       16.8819249   20.8072843   17.0490968
| 35>     H       18.3911445   20.3887834   18.5301025
| 36>     H       20.1456090   16.9177660   19.5448012
| 37>     H       18.9438187   15.8784900   17.6249236
| 38>     H       18.4998317   13.8289541   18.6544695
| 39>     H       17.2613223   12.4417334   20.3032415
| 40>     H       15.7023217   13.5346614   21.9175887
| 41>     H       14.8776910   15.4358139   22.6308224
| 42>     H       16.6373270   17.3837952   20.2491030
| 43> *
| 44>
| 45>                          ****END OF INPUT****

CARTESIAN COORDINATES (ANGSTROEM)
---------------------------------
  C     15.884132   13.145171   16.039838
  C     15.497774   14.516246   16.618651
  O     16.670701   15.346031   16.572396
  C     16.522114   16.702867   16.527621
  O     15.573037   17.229855   15.972796
  C     17.460537   17.416793   17.461717
  C     17.480846   18.768982   17.577561
  C     16.617728   19.765400   16.833424
  N     18.399077   19.386040   18.432360
  C     19.391939   18.736995   19.116426
  S     20.499622   19.553128   20.034462
  N     19.424477   17.370972   18.998512
  C     18.410009   16.552917   18.309303
  C     17.654953   15.704646   19.329198
  C     17.826215   14.307774   19.360195
  C     17.123777   13.521575   20.288835
  C     16.246127   14.137222   21.197439
  C     16.078248   15.528602   21.173903
  O     15.232357   16.125969   22.050484
  C     16.777186   16.308136   20.247145
  H     15.020429   12.469305   16.043718
  H     16.683022   12.686124   16.635063
  H     16.235649   13.247887   15.005571
  H     14.689065   14.938119   16.006235
  H     15.139769   14.418077   17.652206
  H     15.560631   19.629131   17.095576
  H     16.706586   19.620754   15.749215
  H     16.881925   20.807284   17.049097
  H     18.391144   20.388783   18.530103
  H     20.145609   16.917766   19.544801
  H     18.943819   15.878490   17.624924
  H     18.499832   13.828954   18.654470
  H     17.261322   12.441733   20.303241
  H     15.702322   13.534661   21.917589
  H     14.877691   15.435814   22.630822
  H     16.637327   17.383795   20.249103

 Total Charge           Charge          ....    0
 Multiplicity           Mult            ....    1
 Number of Electrons    NEL             ....  154
 Basis Dimension        Dim             ....  828

ORBITAL ENERGIES
----------------

  NO   OCC          E(Eh)            E(eV)
   0   2.0000     -91.889386     -2500.4373
   1   2.0000     -20.598269      -560.5074
   2   2.0000     -20.595095      -560.4210
   3   2.0000     -20.543276      -559.0110
   4   2.0000     -15.629532      -425.3012
   5   2.0000     -15.608875      -424.7391
   6   2.0000     -11.394011      -310.0468
   7   2.0000     -11.384524      -309.7886
   8   2.0000     -11.336061      -308.4699
   9   2.0000     -11.315829      -307.9194
  10   2.0000     -11.310011      -307.7611
  11   2.0000     -11.293669      -307.3164
  12   2.0000     -11.261418      -306.4388
  13   2.0000     -11.258835      -306.3685
  14   2.0000     -11.257246      -306.3252
  15   2.0000     -11.252412      -306.1937
  16   2.0000     -11.244942      -305.9904
  17   2.0000     -11.240218      -305.8619
  18   2.0000     -11.239862      -305.8522
  19   2.0000     -11.228502      -305.5431
  20   2.0000      -8.894445      -242.0302
  21   2.0000      -6.576018      -178.9426
  22   2.0000      -6.574015      -178.8880
  23   2.0000      -6.573427      -178.8720
  24   2.0000      -1.450564       -39.4719
  25   2.0000      -1.417933       -38.5839
  26   2.0000      -1.354198       -36.8496
  27   2.0000      -1.340531       -36.4777
  28   2.0000      -1.239134       -33.7186
  29   2.0000      -1.159271       -31.5454
  30   2.0000      -1.120834       -30.4994
  31   2.0000      -1.043969       -28.4078
  32   2.0000      -1.038362       -28.2553
  33   2.0000      -1.017061       -27.6756
  34   2.0000      -0.996203       -27.1081
  35   2.0000      -0.984830       -26.7986
  36   2.0000      -0.923440       -25.1281
  37   2.0000      -0.885454       -24.0944
  38   2.0000      -0.847445       -23.0602
  39   2.0000      -0.838949       -22.8290
  40   2.0000      -0.835711       -22.7409
  41   2.0000      -0.820466       -22.3260
  42   2.0000      -0.763630       -20.7794
  43   2.0000      -0.733998       -19.9731
  44   2.0000      -0.723306       -19.6822
  45   2.0000      -0.697215       -18.9722
  46   2.0000      -0.687990       -18.7212
  47   2.0000      -0.678940       -18.4749
  48   2.0000      -0.674551       -18.3555
  49   2.0000      -0.657413       -17.8891
  50   2.0000      -0.647116       -17.6089
  51   2.0000      -0.643735       -17.5169
  52   2.0000      -0.634845       -17.2750
  53   2.0000      -0.610759       -16.6196
  54   2.0000      -0.608490       -16.5578
  55   2.0000      -0.601268       -16.3613
  56   2.0000      -0.599249       -16.3064
  57   2.0000      -0.579088       -15.7578
  58   2.0000      -0.571342       -15.5470
  59   2.0000      -0.565525       -15.3887
  60   2.0000      -0.560352       -15.2480
  61   2.0000      -0.540430       -14.7058
  62   2.0000      -0.537627       -14.6296
  63   2.0000      -0.526620       -14.3301
  64   2.0000      -0.524698       -14.2778
  65   2.0000      -0.514303       -13.9949
  66   2.0000      -0.502989       -13.6870
  67   2.0000      -0.497683       -13.5426
  68   2.0000      -0.487110       -13.2549
  69   2.0000      -0.465610       -12.6699
  70   2.0000      -0.457831       -12.4582
  71   2.0000      -0.445896       -12.1334
  72   2.0000      -0.354604        -9.6493
  73   2.0000      -0.351172        -9.5559
  74   2.0000      -0.328879        -8.9493
  75   2.0000      -0.323335        -8.7984
  76   2.0000      -0.316696        -8.6177
  77   0.0000       0.073744         2.0067
  78   0.0000       0.104207         2.8356
  79   0.0000       0.124354         3.3839
  80   0.0000       0.130847         3.5605
  81   0.0000       0.135765         3.6943

MULLIKEN ATOMIC CHARGES
-----------------------
   0 C :   -0.262701
   1 C :    0.009348
   2 O :   -0.366138
   3 C :    0.475695
   4 O :   -0.423974
   5 C :   -0.245954
   6 C :    0.157081
   7 C :   -0.271055
   8 N :   -0.122822
   9 C :    0.211899
  10 S :   -0.439410
  11 N :   -0.205568
  12 C :    0.065311
  13 C :    0.046190
  14 C :   -0.182782
  15 C :   -0.132267
  16 C :   -0.279356
  17 C :    0.313532
  18 O :   -0.355635
  19 C :   -0.261643
  20 H :    0.089973
  21 H :    0.088853
  22 H :    0.099663
  23 H :    0.129742
  24 H :    0.109073
  25 H :    0.132816
  26 H :    0.130092
  27 H :    0.095219
  28 H :    0.197665
  29 H :    0.194958
  30 H :    0.149599
  31 H :    0.152044
  32 H :    0.161695
  33 H :    0.131672
  34 H :    0.240954
  35 H :    0.166234
Sum of atomic charges:    0.0000000

LOEWDIN ATOMIC CHARGES
----------------------
   0 C :    0.107061
   1 C :   -0.016149
   2 O :    0.304476
   3 C :   -0.415000
   4 O :    0.102658
   5 C :   -0.096391
   6 C :   -0.059058
   7 C :    0.131636
   8 N :    0.406644
   9 C :   -0.456269
  10 S :   -0.035021
  11 N :    0.396261
  12 C :   -0.052235
  13 C :   -0.038300
  14 C :    0.014654
  15 C :    0.038705
  16 C :   -0.002561
  17 C :   -0.189768
  18 O :    0.395866
  19 C :    0.031227
  20 H :   -0.025285
  21 H :   -0.031676
  22 H :   -0.025419
  23 H :   -0.027812
  24 H :   -0.030295
  25 H :   -0.004442
  26 H :   -0.003997
  27 H :   -0.023288
  28 H :   -0.057473
  29 H :   -0.064630
  30 H :   -0.010251
  31 H :   -0.030640
  32 H :   -0.021050
  33 H :   -0.035270
  34 H :   -0.153563
  35 H :   -0.023344

  Mayer bond orders larger than 0.100000
B(  0-C ,  1-C ) :   0.9753 B(  0-C , 20-H ) :   0.9768 B(  0-C , 21-H ) :   0.9793
B(  0-C , 22-H ) :   0.9780 B(  1-C ,  2-O ) :   0.8756 B(  1-C , 23-H ) :   0.9773
B(  1-C , 24-H ) :   0.9693 B(  2-O ,  3-C ) :   1.1455 B(  3-C ,  4-O ) :   1.9961
B(  3-C ,  5-C ) :   1.0588 B(  5-C ,  6-C ) :   1.6527 B(  5-C , 12-C ) :   0.9720
B(  6-C ,  7-C ) :   0.9664 B(  6-C ,  8-N ) :   1.1617 B(  7-C , 25-H ) :   0.9592
B(  7-C , 26-H ) :   0.9613 B(  7-C , 27-H ) :   0.9905 B(  8-N ,  9-C ) :   1.1833
B(  8-N , 28-H ) :   0.9478 B(  9-C , 10-S ) :   1.6076 B(  9-C , 11-N ) :   1.3054
B( 11-N , 12-C ) :   0.9847 B( 11-N , 29-H ) :   0.9517 B( 12-C , 13-C ) :   0.9345
B( 12-C , 30-H ) :   1.0021 B( 13-C , 14-C ) :   1.3596 B( 13-C , 19-C ) :   1.3829
B( 14-C , 15-C ) :   1.3894 B( 14-C , 31-H ) :   0.9725 B( 15-C , 16-C ) :   1.3624
B( 15-C , 32-H ) :   0.9704 B( 16-C , 17-C ) :   1.3311 B( 16-C , 33-H ) :   0.9846
B( 17-C , 18-O ) :   1.1121 B( 17-C , 19-C ) :   1.3718 B( 18-O , 34-H ) :   0.9796
B( 19-C , 35-H ) :   0.9578

MP2 TOTAL ENERGY:    -1274.344485143 Eh
FINAL SINGLE POINT ENERGY     -1274.344485143026

DIPOLE MOMENT
-------------
                                X             Y             Z
Electronic contribution:      9.31010      11.16314       7.32293
Nuclear contribution   :    -10.45662     -12.72156      -7.52488
                        -----------------------------------------
Total Dipole Moment    :     -1.14653      -1.55843      -0.20195
                        -----------------------------------------
Magnitude (a.u.)       :      1.94525
Magnitude (Debye)      :      4.94444

Rotational constants in cm-1:     0.012235     0.008441     0.006252
Rotational constants in MHz :   366.782129   253.040986   187.436981

                             ****ORCA TERMINATED NORMALLY****
TOTAL RUN TIME: 0 days 1 hours 58 minutes 37 seconds 515 msec
