                         Program Version 4.2.0 -  RELEASE  -
|  1> ! ri-mp2 cc-pvtz cc-pvtz/c TightSCF  NoKeepInts
|  2>
|  3> %scf
|  4>   MaxCore 4096
|  5> end
|  6> *xyz  0  1
|  7>     C       15.2289279   13.7337111   15.8905843
|  8>     C       15.9258438   14.5802909   16.9685708
|  9>     O       17.0194303   15.2696087   16.3356117
| 10>     C       16.9387032   16.6278191   16.2450753
| 11>     O       16.1276722   17.1304753   15.4886341
| 12>     C       17.5589812   17.3567532   17.4087670
| 13>     C       17.3649218   18.6849152   17.6206294
| 14>     C       16.4815707   19.6261060   16.8293987
| 15>     N       18.0644895   19.3404283   18.6388435
| 16>     C       19.1107700   18.7983732   19.3367089
| 17>     S       20.0117522   19.6888032   20.4001529
| 18>     N       19.3850981   17.4770633   19.0920546
| 19>     C       18.5134318   16.5696124   18.3249189
| 20>     C       17.7934533   15.6447362   19.3005481
| 21>     C       18.2790677   14.3423033   19.5235464
| 22>     C       17.6271034   13.4797797   20.4207924
| 23>     C       16.4845206   13.9249924   21.1069979
| 24>     C       16.0067924   15.2259082   20.8990254
| 25>     O       14.9058730   15.6604090   21.5617637
| 26>     C       16.6562292   16.0817547   20.0041698
| 27>     H       14.8329974   14.3769679   15.0941835
| 28>     H       14.3942245   13.1691001   16.3230378
| 29>     H       15.9325017   13.0215268   15.4420362
| 30>     H       15.2124344   15.2833088   17.4210167
| 31>     H       16.3013053   13.9125123   17.7529024
| 32>     H       15.4416138   19.2754186   16.8339633
| 33>     H       16.8063934   19.6708569   15.7819315
| 34>     H       16.4856925   20.6502251   17.2205734
| 35>     H       17.8840317   20.3153395   18.8184165
| 36>     H       20.1474300   17.0981390   19.6389387
| 37>     H       19.1574050   15.9543313   17.6803914
| 38>     H       19.1628068   13.9948442   18.9945489
| 39>     H       18.0089184   12.4731646   20.5842504
| 40>     H       15.9785215   13.2627687   21.8021516
| 41>     H       14.6406867   14.9614759   22.1788422
| 42>     H       16.2754046   17.0881770   19.8700214
| 43> *
| 44>
| 45>                          ****END OF INPUT****

CARTESIAN COORDINATES (ANGSTROEM)
---------------------------------
  C     15.228928   13.733711   15.890584
  C     15.925844   14.580291   16.968571
  O     17.019430   15.269609   16.335612
  C     16.938703   16.627819   16.245075
  O     16.127672   17.130475   15.488634
  C     17.558981   17.356753   17.408767
  C     17.364922   18.684915   17.620629
  C     16.481571   19.626106   16.829399
  N     18.064490   19.340428   18.638843
  C     19.110770   18.798373   19.336709
  S     20.011752   19.688803   20.400153
  N     19.385098   17.477063   19.092055
  C     18.513432   16.569612   18.324919
  C     17.793453   15.644736   19.300548
  C     18.279068   14.342303   19.523546
  C     17.627103   13.479780   20.420792
  C     16.484521   13.924992   21.106998
  C     16.006792   15.225908   20.899025
  O     14.905873   15.660409   21.561764
  C     16.656229   16.081755   20.004170
  H     14.832997   14.376968   15.094183
  H     14.394224   13.169100   16.323038
  H     15.932502   13.021527   15.442036
  H     15.212434   15.283309   17.421017
  H     16.301305   13.912512   17.752902
  H     15.441614   19.275419   16.833963
  H     16.806393   19.670857   15.781932
  H     16.485692   20.650225   17.220573
  H     17.884032   20.315340   18.818416
  H     20.147430   17.098139   19.638939
  H     19.157405   15.954331   17.680391
  H     19.162807   13.994844   18.994549
  H     18.008918   12.473165   20.584250
  H     15.978521   13.262769   21.802152
  H     14.640687   14.961476   22.178842
  H     16.275405   17.088177   19.870021

 Total Charge           Charge          ....    0
 Multiplicity           Mult            ....    1
 Number of Electrons    NEL             ....  154
 Basis Dimension        Dim             ....  828

ORBITAL ENERGIES
----------------

  NO   OCC          E(Eh)            E(eV)
   0   2.0000     -91.891154     -2500.4854
   1   2.0000     -20.602741      -560.6291
   2   2.0000     -20.580305      -560.0186
   3   2.0000     -20.547933      -559.1377
   4   2.0000     -15.631955      -425.3671
   5   2.0000     -15.610204      -424.7752
   6   2.0000     -11.393172      -310.0240
   7   2.0000     -11.385818      -309.8238
   8   2.0000     -11.338682      -308.5412
   9   2.0000     -11.320407      -308.0439
  10   2.0000     -11.312533      -307.8297
  11   2.0000     -11.293620      -307.3150
  12   2.0000     -11.265037      -306.5373
  13   2.0000     -11.261822      -306.4498
  14   2.0000     -11.260315      -306.4088
  15   2.0000     -11.254146      -306.2409
  16   2.0000     -11.249255      -306.1078
  17   2.0000     -11.243829      -305.9601
  18   2.0000     -11.243652      -305.9553
  19   2.0000     -11.218351      -305.2668
  20   2.0000      -8.896184      -242.0775
  21   2.0000      -6.577750      -178.9897
  22   2.0000      -6.575754      -178.9354
  23   2.0000      -6.575160      -178.9192
  24   2.0000      -1.448191       -39.4073
  25   2.0000      -1.422385       -38.7051
  26   2.0000      -1.352214       -36.7956
  27   2.0000      -1.343028       -36.5456
  28   2.0000      -1.241436       -33.7812
  29   2.0000      -1.163075       -31.6489
  30   2.0000      -1.122000       -30.5312
  31   2.0000      -1.046874       -28.4869
  32   2.0000      -1.030769       -28.0487
  33   2.0000      -1.021462       -27.7954
  34   2.0000      -0.998339       -27.1662
  35   2.0000      -0.986147       -26.8344
  36   2.0000      -0.926228       -25.2039
  37   2.0000      -0.878300       -23.8997
  38   2.0000      -0.850541       -23.1444
  39   2.0000      -0.843802       -22.9610
  40   2.0000      -0.839217       -22.8363
  41   2.0000      -0.829729       -22.5781
  42   2.0000      -0.758633       -20.6435
  43   2.0000      -0.736483       -20.0407
  44   2.0000      -0.722812       -19.6687
  45   2.0000      -0.701911       -19.1000
  46   2.0000      -0.692392       -18.8409
  47   2.0000      -0.678236       -18.4557
  48   2.0000      -0.670619       -18.2485
  49   2.0000      -0.659057       -17.9339
  50   2.0000      -0.649592       -17.6763
  51   2.0000      -0.647268       -17.6131
  52   2.0000      -0.637698       -17.3526
  53   2.0000      -0.613822       -16.7030
  54   2.0000      -0.606936       -16.5156
  55   2.0000      -0.602508       -16.3951
  56   2.0000      -0.594845       -16.1866
  57   2.0000      -0.583291       -15.8722
  58   2.0000      -0.574269       -15.6266
  59   2.0000      -0.570012       -15.5108
  60   2.0000      -0.566238       -15.4081
  61   2.0000      -0.539780       -14.6882
  62   2.0000      -0.536065       -14.5871
  63   2.0000      -0.530676       -14.4404
  64   2.0000      -0.517443       -14.0803
  65   2.0000      -0.508938       -13.8489
  66   2.0000      -0.505489       -13.7551
  67   2.0000      -0.496978       -13.5235
  68   2.0000      -0.489216       -13.3122
  69   2.0000      -0.464901       -12.6506
  70   2.0000      -0.451607       -12.2889
  71   2.0000      -0.443553       -12.0697
  72   2.0000      -0.358310        -9.7501
  73   2.0000      -0.355517        -9.6741
  74   2.0000      -0.331517        -9.0210
  75   2.0000      -0.327217        -8.9040
  76   2.0000      -0.318385        -8.6637
  77   0.0000       0.068543         1.8651
  78   0.0000       0.100460         2.7337
  79   0.0000       0.121028         3.2934
  80   0.0000       0.127160         3.4602
  81   0.0000       0.131145         3.5686

MULLIKEN ATOMIC CHARGES
-----------------------
   0 C :   -0.259718
   1 C :    0.021694
   2 O :   -0.387451
   3 C :    0.494721
   4 O :   -0.407501
   5 C :   -0.277945
   6 C :    0.159427
   7 C :   -0.268784
   8 N :   -0.123282
   9 C :    0.215767
  10 S :   -0.437770
  11 N :   -0.205796
  12 C :    0.054439
  13 C :    0.044973
  14 C :   -0.188110
  15 C :   -0.134532
  16 C :   -0.272650
  17 C :    0.305938
  18 O :   -0.355989
  19 C :   -0.239052
  20 H :    0.109107
  21 H :    0.084541
  22 H :    0.092289
  23 H :    0.094558
  24 H :    0.120492
  25 H :    0.129240
  26 H :    0.134536
  27 H :    0.095169
  28 H :    0.198338
  29 H :    0.193425
  30 H :    0.149913
  31 H :    0.150115
  32 H :    0.164045
  33 H :    0.133726
  34 H :    0.242429
  35 H :    0.169696
Sum of atomic charges:   -0.0000000

LOEWDIN ATOMIC CHARGES
----------------------
   0 C :    0.106213
   1 C :   -0.019050
   2 O :    0.287414
   3 C :   -0.423111
   4 O :    0.119236
   5 C :   -0.099334
   6 C :   -0.057288
   7 C :    0.131042
   8 N :    0.407660
   9 C :   -0.455528
  10 S :   -0.032839
  11 N :    0.396018
  12 C :   -0.053072
  13 C :   -0.035923
  14 C :    0.011667
  15 C :    0.041682
  16 C :   -0.001228
  17 C :   -0.189816
  18 O :    0.396422
  19 C :    0.032417
  20 H :   -0.023590
  21 H :   -0.029971
  22 H :   -0.027900
  23 H :   -0.030544
  24 H :   -0.027876
  25 H :   -0.005438
  26 H :   -0.002931
  27 H :   -0.023138
  28 H :   -0.057210
  29 H :   -0.065732
  30 H :   -0.006983
  31 H :   -0.029684
  32 H :   -0.019497
  33 H :   -0.034183
  34 H :   -0.152190
  35 H :   -0.025714

  Mayer bond orders larger than 0.100000
B(  0-C ,  1-C ) :   0.9857 B(  0-C , 20-H ) :   0.9775 B(  0-C , 21-H ) :   0.9778
B(  0-C , 22-H ) :   0.9797 B(  1-C ,  2-O ) :   0.8664 B(  1-C , 23-H ) :   0.9698
B(  1-C , 24-H ) :   0.9710 B(  2-O ,  3-C ) :   1.0940 B(  3-C ,  4-O ) :   2.0076
B(  3-C ,  5-C ) :   1.0742 B(  5-C ,  6-C ) :   1.6443 B(  5-C , 12-C ) :   0.9703
B(  6-C ,  7-C ) :   0.9697 B(  6-C ,  8-N ) :   1.1599 B(  7-C , 25-H ) :   0.9618
B(  7-C , 26-H ) :   0.9577 B(  7-C , 27-H ) :   0.9895 B(  8-N ,  9-C ) :   1.1804
B(  8-N , 28-H ) :   0.9477 B(  9-C , 10-S ) :   1.6082 B(  9-C , 11-N ) :   1.3059
B( 11-N , 12-C ) :   0.9613 B( 11-N , 29-H ) :   0.9530 B( 12-C , 13-C ) :   0.9549
B( 12-C , 30-H ) :   1.0012 B( 13-C , 14-C ) :   1.3485 B( 13-C , 19-C ) :   1.3621
B( 14-C , 15-C ) :   1.3941 B( 14-C , 31-H ) :   0.9746 B( 15-C , 16-C ) :   1.3632
B( 15-C , 32-H ) :   0.9696 B( 16-C , 17-C ) :   1.3301 B( 16-C , 33-H ) :   0.9836
B( 17-C , 18-O ) :   1.1150 B( 17-C , 19-C ) :   1.3728 B( 18-O , 34-H ) :   0.9786
B( 19-C , 35-H ) :   0.9583

MP2 TOTAL ENERGY:    -1274.328351350 Eh
FINAL SINGLE POINT ENERGY     -1274.328351349636

DIPOLE MOMENT
-------------
                                X             Y             Z
Electronic contribution:     10.12632       9.96616       6.86630
Nuclear contribution   :    -11.08647     -11.42336      -6.59021
                        -----------------------------------------
Total Dipole Moment    :     -0.96015      -1.45720       0.27609
                        -----------------------------------------
Magnitude (a.u.)       :      1.76679
Magnitude (Debye)      :      4.49082

Rotational constants in cm-1:     0.012083     0.008949     0.006359
Rotational constants in MHz :   362.243785   268.288594   190.647624

                             ****ORCA TERMINATED NORMALLY****
TOTAL RUN TIME: 0 days 1 hours 44 minutes 8 seconds 571 msec
