                         Program Version 4.2.0 -  RELEASE  -
|  1> ! ri-mp2 cc-pvtz cc-pvtz/c TightSCF  NoKeepInts
|  2>
|  3> %scf
|  4>   MaxCore 4096
|  5> end
|  6> *xyz  0  1
|  7>     C       14.3843233   15.3899735   16.6992019
|  8>     C       15.8073013   14.8092999   16.6526688
|  9>     O       16.6362521   15.7262360   15.9170531
| 10>     C       17.9042461   15.9140072   16.3786909
| 11>     O       18.6680750   14.9667486   16.4509799
| 12>     C       17.9512852   17.0154626   17.3921344
| 13>     C       17.3093710   18.1977592   17.2272601
| 14>     C       16.4972572   18.6353422   16.0263639
| 15>     N       17.4344902   19.1977637   18.1958609
| 16>     C       18.2856958   19.1418634   19.2687749
| 17>     S       18.4593741   20.4155609   20.3091754
| 18>     N       18.9864663   17.9730509   19.4366564
| 19>     C       18.7797547   16.7416403   18.6498282
| 20>     C       18.1150399   15.6635789   19.5012434
| 21>     C       18.6790317   14.3778330   19.5909769
| 22>     C       18.0564551   13.3739262   20.3514090
| 23>     C       16.8573178   13.6562347   21.0274238
| 24>     C       16.2896266   14.9341955   20.9372517
| 25>     O       15.1249448   15.2067539   21.5774248
| 26>     C       16.9113885   15.9312350   20.1793388
| 27>     H       14.3703314   16.3363457   17.2532024
| 28>     H       13.7034815   14.6923005   17.2019573
| 29>     H       14.0051669   15.5701888   15.6855935
| 30>     H       16.1741944   14.6771102   17.6797442
| 31>     H       15.8083640   13.8276584   16.1609766
| 32>     H       15.4750556   18.2428156   16.0833056
| 33>     H       16.9428542   18.2691431   15.0929728
| 34>     H       16.4344956   19.7271964   15.9421455
| 35>     H       16.9308106   20.0639118   18.0882933
| 36>     H       19.5863082   17.9496327   20.2514094
| 37>     H       19.7666598   16.3751428   18.3317958
| 38>     H       19.5953325   14.1508128   19.0508802
| 39>     H       18.5009065   12.3817019   20.4080116
| 40>     H       16.3719868   12.8826329   21.6133104
| 41>     H       14.8891818   14.4237281   22.0976488
| 42>     H       16.4541734   16.9132127   20.1230351
| 43> *
| 44>
| 45>                          ****END OF INPUT****

CARTESIAN COORDINATES (ANGSTROEM)
---------------------------------
  C     14.384323   15.389973   16.699202
  C     15.807301   14.809300   16.652669
  O     16.636252   15.726236   15.917053
  C     17.904246   15.914007   16.378691
  O     18.668075   14.966749   16.450980
  C     17.951285   17.015463   17.392134
  C     17.309371   18.197759   17.227260
  C     16.497257   18.635342   16.026364
  N     17.434490   19.197764   18.195861
  C     18.285696   19.141863   19.268775
  S     18.459374   20.415561   20.309175
  N     18.986466   17.973051   19.436656
  C     18.779755   16.741640   18.649828
  C     18.115040   15.663579   19.501243
  C     18.679032   14.377833   19.590977
  C     18.056455   13.373926   20.351409
  C     16.857318   13.656235   21.027424
  C     16.289627   14.934195   20.937252
  O     15.124945   15.206754   21.577425
  C     16.911389   15.931235   20.179339
  H     14.370331   16.336346   17.253202
  H     13.703482   14.692300   17.201957
  H     14.005167   15.570189   15.685593
  H     16.174194   14.677110   17.679744
  H     15.808364   13.827658   16.160977
  H     15.475056   18.242816   16.083306
  H     16.942854   18.269143   15.092973
  H     16.434496   19.727196   15.942145
  H     16.930811   20.063912   18.088293
  H     19.586308   17.949633   20.251409
  H     19.766660   16.375143   18.331796
  H     19.595333   14.150813   19.050880
  H     18.500906   12.381702   20.408012
  H     16.371987   12.882633   21.613310
  H     14.889182   14.423728   22.097649
  H     16.454173   16.913213   20.123035

 Total Charge           Charge          ....    0
 Multiplicity           Mult            ....    1
 Number of Electrons    NEL             ....  154
 Basis Dimension        Dim             ....  828

ORBITAL ENERGIES
----------------

  NO   OCC          E(Eh)            E(eV)
   0   2.0000     -91.889690     -2500.4456
   1   2.0000     -20.598152      -560.5042
   2   2.0000     -20.579932      -560.0084
   3   2.0000     -20.557421      -559.3959
   4   2.0000     -15.628949      -425.2853
   5   2.0000     -15.609468      -424.7552
   6   2.0000     -11.393623      -310.0362
   7   2.0000     -11.385339      -309.8108
   8   2.0000     -11.332754      -308.3799
   9   2.0000     -11.314716      -307.8891
  10   2.0000     -11.310495      -307.7742
  11   2.0000     -11.297338      -307.4162
  12   2.0000     -11.260933      -306.4256
  13   2.0000     -11.260178      -306.4050
  14   2.0000     -11.259959      -306.3991
  15   2.0000     -11.254804      -306.2588
  16   2.0000     -11.244502      -305.9785
  17   2.0000     -11.240069      -305.8578
  18   2.0000     -11.237293      -305.7823
  19   2.0000     -11.231903      -305.6356
  20   2.0000      -8.894766      -242.0389
  21   2.0000      -6.576343      -178.9514
  22   2.0000      -6.574333      -178.8967
  23   2.0000      -6.573748      -178.8808
  24   2.0000      -1.452595       -39.5271
  25   2.0000      -1.417969       -38.5849
  26   2.0000      -1.355870       -36.8951
  27   2.0000      -1.340291       -36.4712
  28   2.0000      -1.238780       -33.7089
  29   2.0000      -1.158686       -31.5294
  30   2.0000      -1.122483       -30.5443
  31   2.0000      -1.046345       -28.4725
  32   2.0000      -1.034661       -28.1546
  33   2.0000      -1.016197       -27.6521
  34   2.0000      -1.000570       -27.2269
  35   2.0000      -0.986636       -26.8477
  36   2.0000      -0.924877       -25.1672
  37   2.0000      -0.882070       -24.0024
  38   2.0000      -0.848957       -23.1013
  39   2.0000      -0.840378       -22.8678
  40   2.0000      -0.834681       -22.7128
  41   2.0000      -0.827545       -22.5187
  42   2.0000      -0.756807       -20.5938
  43   2.0000      -0.735742       -20.0206
  44   2.0000      -0.729754       -19.8576
  45   2.0000      -0.696277       -18.9466
  46   2.0000      -0.686644       -18.6845
  47   2.0000      -0.681387       -18.5415
  48   2.0000      -0.675885       -18.3918
  49   2.0000      -0.655903       -17.8480
  50   2.0000      -0.655259       -17.8305
  51   2.0000      -0.643837       -17.5197
  52   2.0000      -0.636345       -17.3158
  53   2.0000      -0.609283       -16.5794
  54   2.0000      -0.606942       -16.5157
  55   2.0000      -0.603724       -16.4282
  56   2.0000      -0.601431       -16.3658
  57   2.0000      -0.579049       -15.7567
  58   2.0000      -0.575615       -15.6633
  59   2.0000      -0.568451       -15.4683
  60   2.0000      -0.560215       -15.2442
  61   2.0000      -0.549942       -14.9647
  62   2.0000      -0.546162       -14.8618
  63   2.0000      -0.523848       -14.2546
  64   2.0000      -0.514799       -14.0084
  65   2.0000      -0.511794       -13.9266
  66   2.0000      -0.504844       -13.7375
  67   2.0000      -0.499378       -13.5888
  68   2.0000      -0.482020       -13.1164
  69   2.0000      -0.466915       -12.7054
  70   2.0000      -0.454668       -12.3722
  71   2.0000      -0.453568       -12.3422
  72   2.0000      -0.355487        -9.6733
  73   2.0000      -0.350036        -9.5250
  74   2.0000      -0.329072        -8.9545
  75   2.0000      -0.322167        -8.7666
  76   2.0000      -0.316667        -8.6169
  77   0.0000       0.069430         1.8893
  78   0.0000       0.101599         2.7646
  79   0.0000       0.118339         3.2202
  80   0.0000       0.129778         3.5314
  81   0.0000       0.134033         3.6472

MULLIKEN ATOMIC CHARGES
-----------------------
   0 C :   -0.290069
   1 C :    0.042651
   2 O :   -0.377512
   3 C :    0.456604
   4 O :   -0.389901
   5 C :   -0.197402
   6 C :    0.126060
   7 C :   -0.284482
   8 N :   -0.124838
   9 C :    0.199334
  10 S :   -0.438610
  11 N :   -0.200990
  12 C :    0.059255
  13 C :    0.010940
  14 C :   -0.150840
  15 C :   -0.137524
  16 C :   -0.276613
  17 C :    0.309932
  18 O :   -0.359283
  19 C :   -0.264856
  20 H :    0.091102
  21 H :    0.108459
  22 H :    0.102882
  23 H :    0.098577
  24 H :    0.114257
  25 H :    0.124465
  26 H :    0.124156
  27 H :    0.108649
  28 H :    0.197485
  29 H :    0.194174
  30 H :    0.157190
  31 H :    0.159849
  32 H :    0.162030
  33 H :    0.132411
  34 H :    0.241380
  35 H :    0.171079
Sum of atomic charges:    0.0000000

LOEWDIN ATOMIC CHARGES
----------------------
   0 C :    0.106813
   1 C :   -0.012700
   2 O :    0.284822
   3 C :   -0.420503
   4 O :    0.134691
   5 C :   -0.094198
   6 C :   -0.077599
   7 C :    0.127297
   8 N :    0.404037
   9 C :   -0.457614
  10 S :   -0.035709
  11 N :    0.396911
  12 C :   -0.044916
  13 C :   -0.043358
  14 C :    0.021225
  15 C :    0.042798
  16 C :   -0.001718
  17 C :   -0.195185
  18 O :    0.394335
  19 C :    0.027512
  20 H :   -0.031245
  21 H :   -0.022376
  22 H :   -0.027026
  23 H :   -0.027451
  24 H :   -0.027788
  25 H :   -0.011880
  26 H :   -0.007619
  27 H :   -0.018567
  28 H :   -0.058536
  29 H :   -0.064146
  30 H :   -0.004034
  31 H :   -0.023729
  32 H :   -0.019538
  33 H :   -0.035009
  34 H :   -0.153547
  35 H :   -0.024449

  Mayer bond orders larger than 0.100000
B(  0-C ,  1-C ) :   0.9725 B(  0-C , 20-H ) :   0.9770 B(  0-C , 21-H ) :   0.9780
B(  0-C , 22-H ) :   0.9762 B(  1-C ,  2-O ) :   0.8892 B(  1-C , 23-H ) :   0.9641
B(  1-C , 24-H ) :   0.9858 B(  2-O ,  3-C ) :   1.0863 B(  3-C ,  4-O ) :   2.0400
B(  3-C ,  5-C ) :   1.0130 B(  5-C ,  6-C ) :   1.6736 B(  5-C , 12-C ) :   0.9600
B(  6-C ,  7-C ) :   0.9532 B(  6-C ,  8-N ) :   1.1341 B(  7-C , 25-H ) :   0.9627
B(  7-C , 26-H ) :   0.9714 B(  7-C , 27-H ) :   0.9874 B(  8-N ,  9-C ) :   1.1856
B(  8-N , 28-H ) :   0.9502 B(  9-C , 10-S ) :   1.6128 B(  9-C , 11-N ) :   1.2970
B( 11-N , 12-C ) :   0.9936 B( 11-N , 29-H ) :   0.9518 B( 12-C , 13-C ) :   0.9451
B( 12-C , 30-H ) :   0.9976 B( 13-C , 14-C ) :   1.3842 B( 13-C , 19-C ) :   1.3631
B( 14-C , 15-C ) :   1.3941 B( 14-C , 31-H ) :   0.9622 B( 15-C , 16-C ) :   1.3645
B( 15-C , 32-H ) :   0.9708 B( 16-C , 17-C ) :   1.3293 B( 16-C , 33-H ) :   0.9843
B( 17-C , 18-O ) :   1.1113 B( 17-C , 19-C ) :   1.3739 B( 18-O , 34-H ) :   0.9795
B( 19-C , 35-H ) :   0.9579

MP2 TOTAL ENERGY:    -1274.320233920 Eh
FINAL SINGLE POINT ENERGY     -1274.320233919568

DIPOLE MOMENT
-------------
                                X             Y             Z
Electronic contribution:     11.07777       7.57308       6.63880
Nuclear contribution   :    -12.27943      -8.84571      -7.15160
                        -----------------------------------------
Total Dipole Moment    :     -1.20166      -1.27263      -0.51280
                        -----------------------------------------
Magnitude (a.u.)       :      1.82388
Magnitude (Debye)      :      4.63593

Rotational constants in cm-1:     0.011773     0.009332     0.006965
Rotational constants in MHz :   352.957898   279.779452   208.810190

                             ****ORCA TERMINATED NORMALLY****
TOTAL RUN TIME: 0 days 1 hours 54 minutes 37 seconds 632 msec
