                         Program Version 4.2.0 -  RELEASE  -
|  1> ! ri-mp2 cc-pvtz cc-pvtz/c TightSCF  NoKeepInts
|  2>
|  3> %scf
|  4>   MaxCore 4096
|  5> end
|  6> *xyz  0  1
|  7>     C       15.2388732   14.0585604   15.1952122
|  8>     C       15.8434098   14.0742422   16.6161793
|  9>     O       16.8571704   15.0922008   16.7601279
| 10>     C       16.5899853   16.4314075   16.6470201
| 11>     O       15.6101586   16.8696789   16.0709420
| 12>     C       17.4683522   17.2604441   17.5452415
| 13>     C       17.3883810   18.6150144   17.5928075
| 14>     C       16.4581959   19.5083884   16.7998919
| 15>     N       18.2564578   19.3408100   18.4141122
| 16>     C       19.2967587   18.8035851   19.1239555
| 17>     S       20.3423117   19.7456507   19.9930377
| 18>     N       19.4315324   17.4398005   19.0739356
| 19>     C       18.4763801   16.5150035   18.4369305
| 20>     C       17.7821280   15.6774142   19.5076421
| 21>     C       18.0482318   14.2995424   19.6183721
| 22>     C       17.4073475   13.5239964   20.5991725
| 23>     C       16.4952361   14.1313431   21.4790124
| 24>     C       16.2319567   15.5041482   21.3751353
| 25>     O       15.3531221   16.0936806   22.2242874
| 26>     C       16.8707413   16.2731374   20.3975717
| 27>     H       14.5298803   14.8815791   15.0468029
| 28>     H       14.6922736   13.1229397   15.0271186
| 29>     H       16.0267114   14.1341098   14.4356724
| 30>     H       15.0464316   14.2292084   17.3557432
| 31>     H       16.2998090   13.0967024   16.8173658
| 32>     H       15.4128036   19.3083917   17.0680930
| 33>     H       16.5617177   19.3173531   15.7242412
| 34>     H       16.6447883   20.5761167   16.9639657
| 35>     H       18.1729657   20.3436932   18.4619028
| 36>     H       20.1854435   17.0697814   19.6382749
| 37>     H       19.0567045   15.8411638   17.7910670
| 38>     H       18.7501652   13.8270025   18.9365048
| 39>     H       17.6190395   12.4589403   20.6762984
| 40>     H       15.9985640   13.5371104   22.2389750
| 41>     H       15.0448351   15.4147437   22.8429731
| 42>     H       16.6581361   17.3351150   20.3384137
| 43> *
| 44>
| 45>                          ****END OF INPUT****

CARTESIAN COORDINATES (ANGSTROEM)
---------------------------------
  C     15.238873   14.058560   15.195212
  C     15.843410   14.074242   16.616179
  O     16.857170   15.092201   16.760128
  C     16.589985   16.431407   16.647020
  O     15.610159   16.869679   16.070942
  C     17.468352   17.260444   17.545241
  C     17.388381   18.615014   17.592807
  C     16.458196   19.508388   16.799892
  N     18.256458   19.340810   18.414112
  C     19.296759   18.803585   19.123956
  S     20.342312   19.745651   19.993038
  N     19.431532   17.439801   19.073936
  C     18.476380   16.515003   18.436930
  C     17.782128   15.677414   19.507642
  C     18.048232   14.299542   19.618372
  C     17.407348   13.523996   20.599173
  C     16.495236   14.131343   21.479012
  C     16.231957   15.504148   21.375135
  O     15.353122   16.093681   22.224287
  C     16.870741   16.273137   20.397572
  H     14.529880   14.881579   15.046803
  H     14.692274   13.122940   15.027119
  H     16.026711   14.134110   14.435672
  H     15.046432   14.229208   17.355743
  H     16.299809   13.096702   16.817366
  H     15.412804   19.308392   17.068093
  H     16.561718   19.317353   15.724241
  H     16.644788   20.576117   16.963966
  H     18.172966   20.343693   18.461903
  H     20.185444   17.069781   19.638275
  H     19.056704   15.841164   17.791067
  H     18.750165   13.827002   18.936505
  H     17.619039   12.458940   20.676298
  H     15.998564   13.537110   22.238975
  H     15.044835   15.414744   22.842973
  H     16.658136   17.335115   20.338414

 Total Charge           Charge          ....    0
 Multiplicity           Mult            ....    1
 Number of Electrons    NEL             ....  154
 Basis Dimension        Dim             ....  828

ORBITAL ENERGIES
----------------

  NO   OCC          E(Eh)            E(eV)
   0   2.0000     -91.888446     -2500.4117
   1   2.0000     -20.596957      -560.4717
   2   2.0000     -20.596529      -560.4601
   3   2.0000     -20.543163      -559.0079
   4   2.0000     -15.628575      -425.2752
   5   2.0000     -15.607721      -424.7077
   6   2.0000     -11.396537      -310.1155
   7   2.0000     -11.383485      -309.7604
   8   2.0000     -11.335154      -308.4452
   9   2.0000     -11.313702      -307.8615
  10   2.0000     -11.308534      -307.7209
  11   2.0000     -11.300172      -307.4933
  12   2.0000     -11.259510      -306.3868
  13   2.0000     -11.258559      -306.3610
  14   2.0000     -11.255214      -306.2699
  15   2.0000     -11.251897      -306.1797
  16   2.0000     -11.242802      -305.9322
  17   2.0000     -11.238103      -305.8043
  18   2.0000     -11.237913      -305.7992
  19   2.0000     -11.219499      -305.2981
  20   2.0000      -8.893512      -242.0048
  21   2.0000      -6.575088      -178.9172
  22   2.0000      -6.573083      -178.8627
  23   2.0000      -6.572497      -178.8467
  24   2.0000      -1.447506       -39.3886
  25   2.0000      -1.416169       -38.5359
  26   2.0000      -1.355307       -36.8798
  27   2.0000      -1.339615       -36.4528
  28   2.0000      -1.238070       -33.6896
  29   2.0000      -1.157245       -31.4902
  30   2.0000      -1.119564       -30.4649
  31   2.0000      -1.042233       -28.3606
  32   2.0000      -1.034600       -28.1529
  33   2.0000      -1.014904       -27.6169
  34   2.0000      -0.994662       -27.0661
  35   2.0000      -0.983173       -26.7535
  36   2.0000      -0.922126       -25.0923
  37   2.0000      -0.893255       -24.3067
  38   2.0000      -0.846927       -23.0461
  39   2.0000      -0.837815       -22.7981
  40   2.0000      -0.833838       -22.6899
  41   2.0000      -0.819540       -22.3008
  42   2.0000      -0.751479       -20.4488
  43   2.0000      -0.731075       -19.8936
  44   2.0000      -0.720815       -19.6144
  45   2.0000      -0.695531       -18.9264
  46   2.0000      -0.688178       -18.7263
  47   2.0000      -0.680371       -18.5138
  48   2.0000      -0.669223       -18.2105
  49   2.0000      -0.653805       -17.7909
  50   2.0000      -0.649959       -17.6863
  51   2.0000      -0.645179       -17.5562
  52   2.0000      -0.633324       -17.2336
  53   2.0000      -0.606956       -16.5161
  54   2.0000      -0.602898       -16.4057
  55   2.0000      -0.598702       -16.2915
  56   2.0000      -0.598217       -16.2783
  57   2.0000      -0.581750       -15.8302
  58   2.0000      -0.574304       -15.6276
  59   2.0000      -0.570591       -15.5266
  60   2.0000      -0.562622       -15.3097
  61   2.0000      -0.538555       -14.6548
  62   2.0000      -0.535372       -14.5682
  63   2.0000      -0.524756       -14.2794
  64   2.0000      -0.519345       -14.1321
  65   2.0000      -0.512661       -13.9502
  66   2.0000      -0.501509       -13.6468
  67   2.0000      -0.499237       -13.5849
  68   2.0000      -0.484553       -13.1853
  69   2.0000      -0.463776       -12.6200
  70   2.0000      -0.455879       -12.4051
  71   2.0000      -0.441017       -12.0007
  72   2.0000      -0.353613        -9.6223
  73   2.0000      -0.349165        -9.5013
  74   2.0000      -0.327873        -8.9219
  75   2.0000      -0.321243        -8.7415
  76   2.0000      -0.315618        -8.5884
  77   0.0000       0.075559         2.0561
  78   0.0000       0.106826         2.9069
  79   0.0000       0.125065         3.4032
  80   0.0000       0.132625         3.6089
  81   0.0000       0.137862         3.7514

MULLIKEN ATOMIC CHARGES
-----------------------
   0 C :   -0.292293
   1 C :    0.049289
   2 O :   -0.366315
   3 C :    0.462764
   4 O :   -0.430403
   5 C :   -0.211083
   6 C :    0.149841
   7 C :   -0.273489
   8 N :   -0.120847
   9 C :    0.212382
  10 S :   -0.440786
  11 N :   -0.204788
  12 C :    0.057673
  13 C :    0.066534
  14 C :   -0.189537
  15 C :   -0.129503
  16 C :   -0.280283
  17 C :    0.315841
  18 O :   -0.356427
  19 C :   -0.269511
  20 H :    0.125530
  21 H :    0.093394
  22 H :    0.092873
  23 H :    0.093145
  24 H :    0.101803
  25 H :    0.132605
  26 H :    0.129146
  27 H :    0.095343
  28 H :    0.197209
  29 H :    0.194444
  30 H :    0.149368
  31 H :    0.149577
  32 H :    0.160465
  33 H :    0.130203
  34 H :    0.240709
  35 H :    0.165125
Sum of atomic charges:    0.0000000

LOEWDIN ATOMIC CHARGES
----------------------
   0 C :    0.104142
   1 C :   -0.012518
   2 O :    0.297870
   3 C :   -0.412522
   4 O :    0.107506
   5 C :   -0.094172
   6 C :   -0.059528
   7 C :    0.130860
   8 N :    0.406432
   9 C :   -0.456532
  10 S :   -0.036063
  11 N :    0.396308
  12 C :   -0.052471
  13 C :   -0.037717
  14 C :    0.014075
  15 C :    0.038639
  16 C :   -0.002493
  17 C :   -0.189595
  18 O :    0.395297
  19 C :    0.031067
  20 H :   -0.026875
  21 H :   -0.029913
  22 H :   -0.027717
  23 H :   -0.028251
  24 H :   -0.024814
  25 H :   -0.004767
  26 H :   -0.004457
  27 H :   -0.023415
  28 H :   -0.057683
  29 H :   -0.064754
  30 H :   -0.010675
  31 H :   -0.030367
  32 H :   -0.021464
  33 H :   -0.035717
  34 H :   -0.153933
  35 H :   -0.023784

  Mayer bond orders larger than 0.100000
B(  0-C ,  1-C ) :   0.9761 B(  0-C , 20-H ) :   0.9716 B(  0-C , 21-H ) :   0.9785
B(  0-C , 22-H ) :   0.9754 B(  1-C ,  2-O ) :   0.8931 B(  1-C , 23-H ) :   0.9735
B(  1-C , 24-H ) :   0.9831 B(  2-O ,  3-C ) :   1.1384 B(  3-C ,  4-O ) :   1.9673
B(  3-C ,  5-C ) :   1.0646 B(  5-C ,  6-C ) :   1.6557 B(  5-C , 12-C ) :   0.9736
B(  6-C ,  7-C ) :   0.9674 B(  6-C ,  8-N ) :   1.1623 B(  7-C , 25-H ) :   0.9596
B(  7-C , 26-H ) :   0.9612 B(  7-C , 27-H ) :   0.9909 B(  8-N ,  9-C ) :   1.1829
B(  8-N , 28-H ) :   0.9480 B(  9-C , 10-S ) :   1.6063 B(  9-C , 11-N ) :   1.3057
B( 11-N , 12-C ) :   0.9844 B( 11-N , 29-H ) :   0.9517 B( 12-C , 13-C ) :   0.9355
B( 12-C , 30-H ) :   1.0024 B( 13-C , 14-C ) :   1.3550 B( 13-C , 19-C ) :   1.3840
B( 14-C , 15-C ) :   1.3913 B( 14-C , 31-H ) :   0.9721 B( 15-C , 16-C ) :   1.3640
B( 15-C , 32-H ) :   0.9706 B( 16-C , 17-C ) :   1.3313 B( 16-C , 33-H ) :   0.9849
B( 17-C , 18-O ) :   1.1106 B( 17-C , 19-C ) :   1.3719 B( 18-O , 34-H ) :   0.9799
B( 19-C , 35-H ) :   0.9582

MP2 TOTAL ENERGY:    -1274.341657422 Eh
FINAL SINGLE POINT ENERGY     -1274.341657422237

DIPOLE MOMENT
-------------
                                X             Y             Z
Electronic contribution:     10.29300       9.81631       9.28203
Nuclear contribution   :    -11.35881     -11.50047      -9.57196
                        -----------------------------------------
Total Dipole Moment    :     -1.06581      -1.68417      -0.28994
                        -----------------------------------------
Magnitude (a.u.)       :      2.01406
Magnitude (Debye)      :      5.11933

Rotational constants in cm-1:     0.011447     0.008741     0.006076
Rotational constants in MHz :   343.157859   262.055738   182.164046

                             ****ORCA TERMINATED NORMALLY****
TOTAL RUN TIME: 0 days 1 hours 43 minutes 1 seconds 923 msec
