                         Program Version 4.2.0 -  RELEASE  -
|  1> ! ri-mp2 cc-pvtz cc-pvtz/c TightSCF  NoKeepInts
|  2>
|  3> %scf
|  4>   MaxCore 4096
|  5> end
|  6> *xyz  0  1
|  7>     C       15.0048506   14.1241740   15.9048104
|  8>     C       16.1191944   14.2761124   16.9594991
|  9>     O       17.1935004   15.0978356   16.4540777
| 10>     C       17.0066493   16.4425964   16.2975264
| 11>     O       16.2224024   16.8824054   15.4762611
| 12>     C       17.6208533   17.2621795   17.4022680
| 13>     C       17.4191444   18.6011310   17.5112383
| 14>     C       16.5459755   19.4752115   16.6362640
| 15>     N       18.0927317   19.3335659   18.4937721
| 16>     C       19.1015891   18.8424365   19.2787335
| 17>     S       19.9566397   19.8083474   20.3138277
| 18>     N       19.3753269   17.5045325   19.1528660
| 19>     C       18.5523270   16.5444396   18.3956631
| 20>     C       17.7982841   15.6528686   19.3767387
| 21>     C       18.1916029   14.3143827   19.5650731
| 22>     C       17.4978658   13.4849194   20.4621207
| 23>     C       16.4063175   13.9993736   21.1823037
| 24>     C       16.0195468   15.3349781   21.0066745
| 25>     O       14.9675134   15.8354662   21.7015943
| 26>     C       16.7098875   16.1573495   20.1110297
| 27>     H       14.4423333   15.0576592   15.7819819
| 28>     H       14.2953202   13.3452370   16.2084400
| 29>     H       15.4272389   13.8432030   14.9319738
| 30>     H       15.7004354   14.7014426   17.8806159
| 31>     H       16.5171534   13.2815853   17.1982946
| 32>     H       15.5072187   19.1212647   16.6515646
| 33>     H       16.8873838   19.4405369   15.5937139
| 34>     H       16.5407857   20.5263053   16.9476685
| 35>     H       17.9112153   20.3199476   18.5903293
| 36>     H       20.1064417   17.1653964   19.7647053
| 37>     H       19.2364139   15.9133929   17.8106309
| 38>     H       19.0349037   13.9134886   19.0085462
| 39>     H       17.8086174   12.4504330   20.5998472
| 40>     H       15.8687277   13.3631765   21.8780231
| 41>     H       14.6614442   15.1443658   22.3082693
| 42>     H       16.3991639   17.1902596   19.9970535
| 43> *
| 44>
| 45>                          ****END OF INPUT****

CARTESIAN COORDINATES (ANGSTROEM)
---------------------------------
  C     15.004851   14.124174   15.904810
  C     16.119194   14.276112   16.959499
  O     17.193500   15.097836   16.454078
  C     17.006649   16.442596   16.297526
  O     16.222402   16.882405   15.476261
  C     17.620853   17.262179   17.402268
  C     17.419144   18.601131   17.511238
  C     16.545976   19.475212   16.636264
  N     18.092732   19.333566   18.493772
  C     19.101589   18.842437   19.278734
  S     19.956640   19.808347   20.313828
  N     19.375327   17.504532   19.152866
  C     18.552327   16.544440   18.395663
  C     17.798284   15.652869   19.376739
  C     18.191603   14.314383   19.565073
  C     17.497866   13.484919   20.462121
  C     16.406318   13.999374   21.182304
  C     16.019547   15.334978   21.006674
  O     14.967513   15.835466   21.701594
  C     16.709888   16.157349   20.111030
  H     14.442333   15.057659   15.781982
  H     14.295320   13.345237   16.208440
  H     15.427239   13.843203   14.931974
  H     15.700435   14.701443   17.880616
  H     16.517153   13.281585   17.198295
  H     15.507219   19.121265   16.651565
  H     16.887384   19.440537   15.593714
  H     16.540786   20.526305   16.947668
  H     17.911215   20.319948   18.590329
  H     20.106442   17.165396   19.764705
  H     19.236414   15.913393   17.810631
  H     19.034904   13.913489   19.008546
  H     17.808617   12.450433   20.599847
  H     15.868728   13.363176   21.878023
  H     14.661444   15.144366   22.308269
  H     16.399164   17.190260   19.997053

 Total Charge           Charge          ....    0
 Multiplicity           Mult            ....    1
 Number of Electrons    NEL             ....  154
 Basis Dimension        Dim             ....  828

ORBITAL ENERGIES
----------------

  NO   OCC          E(Eh)            E(eV)
   0   2.0000     -91.890609     -2500.4706
   1   2.0000     -20.601599      -560.5980
   2   2.0000     -20.583186      -560.0970
   3   2.0000     -20.547240      -559.1188
   4   2.0000     -15.631152      -425.3453
   5   2.0000     -15.609693      -424.7614
   6   2.0000     -11.394225      -310.0526
   7   2.0000     -11.385356      -309.8113
   8   2.0000     -11.337774      -308.5165
   9   2.0000     -11.319436      -308.0175
  10   2.0000     -11.311386      -307.7985
  11   2.0000     -11.296654      -307.3976
  12   2.0000     -11.263951      -306.5077
  13   2.0000     -11.260708      -306.4194
  14   2.0000     -11.259325      -306.3818
  15   2.0000     -11.253586      -306.2256
  16   2.0000     -11.248465      -306.0863
  17   2.0000     -11.243024      -305.9382
  18   2.0000     -11.242816      -305.9326
  19   2.0000     -11.216264      -305.2101
  20   2.0000      -8.895650      -242.0629
  21   2.0000      -6.577219      -178.9752
  22   2.0000      -6.575221      -178.9208
  23   2.0000      -6.574628      -178.9047
  24   2.0000      -1.445464       -39.3331
  25   2.0000      -1.421294       -38.6754
  26   2.0000      -1.353351       -36.8266
  27   2.0000      -1.342216       -36.5235
  28   2.0000      -1.240627       -33.7592
  29   2.0000      -1.162166       -31.6241
  30   2.0000      -1.121439       -30.5159
  31   2.0000      -1.046086       -28.4654
  32   2.0000      -1.030074       -28.0298
  33   2.0000      -1.020429       -27.7673
  34   2.0000      -0.997265       -27.1370
  35   2.0000      -0.985579       -26.8190
  36   2.0000      -0.925331       -25.1795
  37   2.0000      -0.885334       -24.0912
  38   2.0000      -0.849606       -23.1190
  39   2.0000      -0.842874       -22.9358
  40   2.0000      -0.838739       -22.8232
  41   2.0000      -0.826160       -22.4810
  42   2.0000      -0.752256       -20.4699
  43   2.0000      -0.735064       -20.0021
  44   2.0000      -0.719004       -19.5651
  45   2.0000      -0.700446       -19.0601
  46   2.0000      -0.691249       -18.8098
  47   2.0000      -0.679619       -18.4934
  48   2.0000      -0.668850       -18.2003
  49   2.0000      -0.661060       -17.9884
  50   2.0000      -0.650150       -17.6915
  51   2.0000      -0.647891       -17.6300
  52   2.0000      -0.638311       -17.3693
  53   2.0000      -0.612082       -16.6556
  54   2.0000      -0.606090       -16.4926
  55   2.0000      -0.601525       -16.3683
  56   2.0000      -0.594404       -16.1745
  57   2.0000      -0.581792       -15.8314
  58   2.0000      -0.574211       -15.6251
  59   2.0000      -0.571539       -15.5524
  60   2.0000      -0.563419       -15.3314
  61   2.0000      -0.540648       -14.7118
  62   2.0000      -0.535209       -14.5638
  63   2.0000      -0.528691       -14.3864
  64   2.0000      -0.518629       -14.1126
  65   2.0000      -0.515539       -14.0285
  66   2.0000      -0.504469       -13.7273
  67   2.0000      -0.497185       -13.5291
  68   2.0000      -0.482407       -13.1270
  69   2.0000      -0.463541       -12.6136
  70   2.0000      -0.455383       -12.3916
  71   2.0000      -0.441194       -12.0055
  72   2.0000      -0.356978        -9.7139
  73   2.0000      -0.354184        -9.6378
  74   2.0000      -0.330593        -8.9959
  75   2.0000      -0.326642        -8.8884
  76   2.0000      -0.317793        -8.6476
  77   0.0000       0.069896         1.9020
  78   0.0000       0.100389         2.7317
  79   0.0000       0.122606         3.3363
  80   0.0000       0.128940         3.5086
  81   0.0000       0.133298         3.6272

MULLIKEN ATOMIC CHARGES
-----------------------
   0 C :   -0.269479
   1 C :    0.026729
   2 O :   -0.388920
   3 C :    0.504222
   4 O :   -0.411381
   5 C :   -0.271645
   6 C :    0.159696
   7 C :   -0.270099
   8 N :   -0.124125
   9 C :    0.212874
  10 S :   -0.437472
  11 N :   -0.202760
  12 C :    0.056095
  13 C :    0.026758
  14 C :   -0.164157
  15 C :   -0.131546
  16 C :   -0.275441
  17 C :    0.311027
  18 O :   -0.356212
  19 C :   -0.255720
  20 H :    0.106452
  21 H :    0.089572
  22 H :    0.100123
  23 H :    0.100969
  24 H :    0.105679
  25 H :    0.129376
  26 H :    0.134172
  27 H :    0.095166
  28 H :    0.198205
  29 H :    0.193665
  30 H :    0.151252
  31 H :    0.148799
  32 H :    0.164128
  33 H :    0.133543
  34 H :    0.241771
  35 H :    0.168684
Sum of atomic charges:    0.0000000

LOEWDIN ATOMIC CHARGES
----------------------
   0 C :    0.105108
   1 C :   -0.020395
   2 O :    0.284040
   3 C :   -0.415714
   4 O :    0.120649
   5 C :   -0.098732
   6 C :   -0.057546
   7 C :    0.131152
   8 N :    0.407036
   9 C :   -0.456630
  10 S :   -0.033321
  11 N :    0.396379
  12 C :   -0.052922
  13 C :   -0.038446
  14 C :    0.016068
  15 C :    0.041835
  16 C :   -0.001449
  17 C :   -0.190975
  18 O :    0.396543
  19 C :    0.029617
  20 H :   -0.028829
  21 H :   -0.030508
  22 H :   -0.024656
  23 H :   -0.031495
  24 H :   -0.023923
  25 H :   -0.005404
  26 H :   -0.003128
  27 H :   -0.023239
  28 H :   -0.057337
  29 H :   -0.065044
  30 H :   -0.008021
  31 H :   -0.029198
  32 H :   -0.020010
  33 H :   -0.034433
  34 H :   -0.152671
  35 H :   -0.024401

  Mayer bond orders larger than 0.100000
B(  0-C ,  1-C ) :   0.9845 B(  0-C , 20-H ) :   0.9722 B(  0-C , 21-H ) :   0.9766
B(  0-C , 22-H ) :   0.9779 B(  1-C ,  2-O ) :   0.8816 B(  1-C , 23-H ) :   0.9663
B(  1-C , 24-H ) :   0.9806 B(  2-O ,  3-C ) :   1.0858 B(  3-C ,  4-O ) :   2.0048
B(  3-C ,  5-C ) :   1.0748 B(  5-C ,  6-C ) :   1.6493 B(  5-C , 12-C ) :   0.9697
B(  6-C ,  7-C ) :   0.9683 B(  6-C ,  8-N ) :   1.1594 B(  7-C , 25-H ) :   0.9616
B(  7-C , 26-H ) :   0.9581 B(  7-C , 27-H ) :   0.9901 B(  8-N ,  9-C ) :   1.1800
B(  8-N , 28-H ) :   0.9477 B(  9-C , 10-S ) :   1.6100 B(  9-C , 11-N ) :   1.3053
B( 11-N , 12-C ) :   0.9735 B( 11-N , 29-H ) :   0.9530 B( 12-C , 13-C ) :   0.9463
B( 12-C , 30-H ) :   1.0008 B( 13-C , 14-C ) :   1.3483 B( 13-C , 19-C ) :   1.3749
B( 14-C , 15-C ) :   1.3872 B( 14-C , 31-H ) :   0.9767 B( 15-C , 16-C ) :   1.3660
B( 15-C , 32-H ) :   0.9695 B( 16-C , 17-C ) :   1.3284 B( 16-C , 33-H ) :   0.9837
B( 17-C , 18-O ) :   1.1143 B( 17-C , 19-C ) :   1.3725 B( 18-O , 34-H ) :   0.9790
B( 19-C , 35-H ) :   0.9575

MP2 TOTAL ENERGY:    -1274.332920402 Eh
FINAL SINGLE POINT ENERGY     -1274.332920402089

DIPOLE MOMENT
-------------
                                X             Y             Z
Electronic contribution:     10.56442       9.54769       7.15132
Nuclear contribution   :    -11.57039     -11.10009      -6.96680
                        -----------------------------------------
Total Dipole Moment    :     -1.00597      -1.55240       0.18452
                        -----------------------------------------
Magnitude (a.u.)       :      1.85903
Magnitude (Debye)      :      4.72527

Rotational constants in cm-1:     0.012025     0.009018     0.006348
Rotational constants in MHz :   360.507526   270.350670   190.321486

                             ****ORCA TERMINATED NORMALLY****
TOTAL RUN TIME: 0 days 1 hours 52 minutes 42 seconds 934 msec
