                         Program Version 4.2.0 -  RELEASE  -
|  1> ! ri-mp2 cc-pvtz cc-pvtz/c TightSCF  NoKeepInts
|  2>
|  3> %scf
|  4>   MaxCore 4096
|  5> end
|  6> *xyz  0  1
|  7>     C       14.9576540   14.4124088   17.2982215
|  8>     C       15.4777673   15.6739252   16.5889918
|  9>     O       16.7381582   15.3259797   15.9773809
| 10>     C       17.9615175   15.6647668   16.4991239
| 11>     O       18.8754430   14.8610639   16.4776356
| 12>     C       18.0214991   16.8836417   17.3646785
| 13>     C       17.5465857   18.0915758   16.9776918
| 14>     C       16.9227113   18.4426995   15.6435116
| 15>     N       17.6793242   19.1946459   17.8241488
| 16>     C       18.3645479   19.1886935   19.0113509
| 17>     S       18.5282431   20.5567136   19.9254446
| 18>     N       18.9034293   17.9887823   19.4065358
| 19>     C       18.7148232   16.6989547   18.7132371
| 20>     C       17.9282168   15.7176918   19.5763044
| 21>     C       18.3695085   14.3898392   19.7211154
| 22>     C       17.6357359   13.4713074   20.4901680
| 23>     C       16.4468723   13.8818483   21.1168829
| 24>     C       15.9994919   15.2014601   20.9683782
| 25>     O       14.8432533   15.5971096   21.5573765
| 26>     C       16.7321466   16.1140372   20.2028842
| 27>     H       15.6630013   14.0849245   18.0723306
| 28>     H       14.8295184   13.5909796   16.5822094
| 29>     H       13.9904410   14.6078506   17.7767548
| 30>     H       14.7610711   15.9639310   15.8099067
| 31>     H       15.5492755   16.4933597   17.3124868
| 32>     H       17.1604285   17.7009693   14.8707145
| 33>     H       17.2947278   19.4065651   15.2733312
| 34>     H       15.8311606   18.5116122   15.7220279
| 35>     H       17.3025083   20.0876538   17.5471219
| 36>     H       19.3837525   18.0095733   20.2973652
| 37>     H       19.7102374   16.2708244   18.5231060
| 38>     H       19.2776313   14.0636920   19.2184668
| 39>     H       17.9860145   12.4452714   20.5900197
| 40>     H       15.8752307   13.1738086   21.7078252
| 41>     H       14.5188244   14.8537015   22.0881668
| 42>     H       16.3662475   17.1301379   20.1011041
| 43> *
| 44>
| 45>                          ****END OF INPUT****

CARTESIAN COORDINATES (ANGSTROEM)
---------------------------------
  C     14.957654   14.412409   17.298222
  C     15.477767   15.673925   16.588992
  O     16.738158   15.325980   15.977381
  C     17.961517   15.664767   16.499124
  O     18.875443   14.861064   16.477636
  C     18.021499   16.883642   17.364678
  C     17.546586   18.091576   16.977692
  C     16.922711   18.442699   15.643512
  N     17.679324   19.194646   17.824149
  C     18.364548   19.188693   19.011351
  S     18.528243   20.556714   19.925445
  N     18.903429   17.988782   19.406536
  C     18.714823   16.698955   18.713237
  C     17.928217   15.717692   19.576304
  C     18.369508   14.389839   19.721115
  C     17.635736   13.471307   20.490168
  C     16.446872   13.881848   21.116883
  C     15.999492   15.201460   20.968378
  O     14.843253   15.597110   21.557377
  C     16.732147   16.114037   20.202884
  H     15.663001   14.084924   18.072331
  H     14.829518   13.590980   16.582209
  H     13.990441   14.607851   17.776755
  H     14.761071   15.963931   15.809907
  H     15.549276   16.493360   17.312487
  H     17.160428   17.700969   14.870714
  H     17.294728   19.406565   15.273331
  H     15.831161   18.511612   15.722028
  H     17.302508   20.087654   17.547122
  H     19.383752   18.009573   20.297365
  H     19.710237   16.270824   18.523106
  H     19.277631   14.063692   19.218467
  H     17.986014   12.445271   20.590020
  H     15.875231   13.173809   21.707825
  H     14.518824   14.853701   22.088167
  H     16.366248   17.130138   20.101104

 Total Charge           Charge          ....    0
 Multiplicity           Mult            ....    1
 Number of Electrons    NEL             ....  154
 Basis Dimension        Dim             ....  828

ORBITAL ENERGIES
----------------

  NO   OCC          E(Eh)            E(eV)
   0   2.0000     -91.891147     -2500.4852
   1   2.0000     -20.600385      -560.5650
   2   2.0000     -20.598607      -560.5166
   3   2.0000     -20.549115      -559.1698
   4   2.0000     -15.629537      -425.3013
   5   2.0000     -15.611914      -424.8218
   6   2.0000     -11.397358      -310.1379
   7   2.0000     -11.387623      -309.8730
   8   2.0000     -11.333372      -308.3967
   9   2.0000     -11.317061      -307.9529
  10   2.0000     -11.313448      -307.8546
  11   2.0000     -11.304271      -307.6048
  12   2.0000     -11.267966      -306.6169
  13   2.0000     -11.264442      -306.5210
  14   2.0000     -11.263391      -306.4925
  15   2.0000     -11.257089      -306.3210
  16   2.0000     -11.246424      -306.0307
  17   2.0000     -11.242813      -305.9325
  18   2.0000     -11.239661      -305.8467
  19   2.0000     -11.225488      -305.4611
  20   2.0000      -8.896243      -242.0791
  21   2.0000      -6.577825      -178.9917
  22   2.0000      -6.575806      -178.9368
  23   2.0000      -6.575225      -178.9210
  24   2.0000      -1.447087       -39.3772
  25   2.0000      -1.420137       -38.6439
  26   2.0000      -1.358722       -36.9727
  27   2.0000      -1.341942       -36.5161
  28   2.0000      -1.240972       -33.7686
  29   2.0000      -1.161849       -31.6155
  30   2.0000      -1.126049       -30.6414
  31   2.0000      -1.049153       -28.5489
  32   2.0000      -1.036221       -28.1970
  33   2.0000      -1.019083       -27.7307
  34   2.0000      -1.005535       -27.3620
  35   2.0000      -0.989995       -26.9391
  36   2.0000      -0.928231       -25.2585
  37   2.0000      -0.884479       -24.0679
  38   2.0000      -0.855484       -23.2789
  39   2.0000      -0.842637       -22.9293
  40   2.0000      -0.837383       -22.7864
  41   2.0000      -0.835323       -22.7303
  42   2.0000      -0.752296       -20.4710
  43   2.0000      -0.740742       -20.1566
  44   2.0000      -0.731547       -19.9064
  45   2.0000      -0.698470       -19.0063
  46   2.0000      -0.688714       -18.7409
  47   2.0000      -0.680079       -18.5059
  48   2.0000      -0.677605       -18.4386
  49   2.0000      -0.659447       -17.9445
  50   2.0000      -0.657741       -17.8980
  51   2.0000      -0.648457       -17.6454
  52   2.0000      -0.640725       -17.4350
  53   2.0000      -0.612578       -16.6691
  54   2.0000      -0.609392       -16.5824
  55   2.0000      -0.606235       -16.4965
  56   2.0000      -0.600525       -16.3411
  57   2.0000      -0.583759       -15.8849
  58   2.0000      -0.578847       -15.7512
  59   2.0000      -0.569757       -15.5039
  60   2.0000      -0.560895       -15.2627
  61   2.0000      -0.557031       -15.1576
  62   2.0000      -0.546516       -14.8715
  63   2.0000      -0.529006       -14.3950
  64   2.0000      -0.519627       -14.1398
  65   2.0000      -0.514071       -13.9886
  66   2.0000      -0.502916       -13.6850
  67   2.0000      -0.500655       -13.6235
  68   2.0000      -0.488164       -13.2836
  69   2.0000      -0.471343       -12.8259
  70   2.0000      -0.454885       -12.3781
  71   2.0000      -0.448035       -12.1917
  72   2.0000      -0.357864        -9.7380
  73   2.0000      -0.352962        -9.6046
  74   2.0000      -0.330673        -8.9981
  75   2.0000      -0.324871        -8.8402
  76   2.0000      -0.319321        -8.6892
  77   0.0000       0.078551         2.1375
  78   0.0000       0.102948         2.8014
  79   0.0000       0.115160         3.1337
  80   0.0000       0.127457         3.4683
  81   0.0000       0.135320         3.6823

MULLIKEN ATOMIC CHARGES
-----------------------
   0 C :   -0.268650
   1 C :    0.004572
   2 O :   -0.327181
   3 C :    0.413876
   4 O :   -0.385541
   5 C :   -0.207164
   6 C :    0.142524
   7 C :   -0.315884
   8 N :   -0.134016
   9 C :    0.201625
  10 S :   -0.438547
  11 N :   -0.207853
  12 C :    0.066702
  13 C :    0.023960
  14 C :   -0.185528
  15 C :   -0.129433
  16 C :   -0.278252
  17 C :    0.315429
  18 O :   -0.361055
  19 C :   -0.276102
  20 H :    0.107113
  21 H :    0.109606
  22 H :    0.091731
  23 H :    0.114883
  24 H :    0.100579
  25 H :    0.136133
  26 H :    0.129235
  27 H :    0.120979
  28 H :    0.197559
  29 H :    0.196827
  30 H :    0.162270
  31 H :    0.166378
  32 H :    0.163698
  33 H :    0.132135
  34 H :    0.241999
  35 H :    0.175393
Sum of atomic charges:   -0.0000000

LOEWDIN ATOMIC CHARGES
----------------------
   0 C :    0.108292
   1 C :   -0.022384
   2 O :    0.304002
   3 C :   -0.417094
   4 O :    0.122749
   5 C :   -0.087884
   6 C :   -0.093808
   7 C :    0.127482
   8 N :    0.402386
   9 C :   -0.456883
  10 S :   -0.035641
  11 N :    0.397296
  12 C :   -0.045326
  13 C :   -0.044465
  14 C :    0.022206
  15 C :    0.044487
  16 C :   -0.000294
  17 C :   -0.193231
  18 O :    0.394886
  19 C :    0.027381
  20 H :   -0.023022
  21 H :   -0.024868
  22 H :   -0.026687
  23 H :   -0.029120
  24 H :   -0.039775
  25 H :   -0.006288
  26 H :   -0.011939
  27 H :   -0.015974
  28 H :   -0.057482
  29 H :   -0.063449
  30 H :   -0.002795
  31 H :   -0.021871
  32 H :   -0.018577
  33 H :   -0.034644
  34 H :   -0.152747
  35 H :   -0.024918

  Mayer bond orders larger than 0.100000
B(  0-C ,  1-C ) :   0.9823 B(  0-C , 20-H ) :   0.9703 B(  0-C , 21-H ) :   0.9801
B(  0-C , 22-H ) :   0.9756 B(  1-C ,  2-O ) :   0.8944 B(  1-C , 23-H ) :   0.9794
B(  1-C , 24-H ) :   0.9607 B(  2-O ,  3-C ) :   1.1800 B(  3-C ,  4-O ) :   2.0874
B(  3-C ,  5-C ) :   0.9359 B(  5-C ,  6-C ) :   1.6777 B(  5-C , 12-C ) :   0.9597
B(  6-C ,  7-C ) :   0.9459 B(  6-C ,  8-N ) :   1.1253 B(  7-C , 25-H ) :   0.9759
B(  7-C , 26-H ) :   0.9774 B(  7-C , 27-H ) :   0.9633 B(  8-N ,  9-C ) :   1.1894
B(  8-N , 28-H ) :   0.9510 B(  9-C , 10-S ) :   1.6136 B(  9-C , 11-N ) :   1.2916
B( 11-N , 12-C ) :   0.9995 B( 11-N , 29-H ) :   0.9502 B( 12-C , 13-C ) :   0.9412
B( 12-C , 30-H ) :   0.9972 B( 13-C , 14-C ) :   1.3887 B( 13-C , 19-C ) :   1.3509
B( 14-C , 15-C ) :   1.3931 B( 14-C , 31-H ) :   0.9610 B( 15-C , 16-C ) :   1.3617
B( 15-C , 32-H ) :   0.9708 B( 16-C , 17-C ) :   1.3303 B( 16-C , 33-H ) :   0.9851
B( 17-C , 18-O ) :   1.1065 B( 17-C , 19-C ) :   1.3716 B( 18-O , 34-H ) :   0.9789
B( 19-C , 35-H ) :   0.9567

MP2 TOTAL ENERGY:    -1274.337221978 Eh
FINAL SINGLE POINT ENERGY     -1274.337221978063

DIPOLE MOMENT
-------------
                                X             Y             Z
Electronic contribution:     10.12214       8.21597       5.72826
Nuclear contribution   :    -11.63524      -9.10797      -6.07373
                        -----------------------------------------
Total Dipole Moment    :     -1.51310      -0.89200      -0.34547
                        -----------------------------------------
Magnitude (a.u.)       :      1.79011
Magnitude (Debye)      :      4.55009

Rotational constants in cm-1:     0.012398     0.009199     0.006882
Rotational constants in MHz :   371.697287   275.780802   206.319096

                             ****ORCA TERMINATED NORMALLY****
TOTAL RUN TIME: 0 days 1 hours 42 minutes 54 seconds 671 msec
