                         Program Version 5.0.0 -  RELEASE  -
|  1> ! ri-mp2 cc-pvtz cc-pvtz/c TightSCF NoKeepInts
|  2>
|  3> %scf
|  4>   MaxCore 4096
|  5> end
|  6> *xyz  0  1
|  7>     C       15.0131680   16.0288229   17.3561564
|  8>     C       15.7121274   14.6717371   17.1113530
|  9>     O       17.0915809   14.7150224   16.6525955
| 10>     C       17.8647231   15.8070716   16.3530618
| 11>     O       18.3589459   15.9063181   15.2452472
| 12>     C       17.8495439   16.9537000   17.3161522
| 13>     C       17.5882810   18.2142921   16.8946472
| 14>     C       17.1699112   18.6322229   15.5012187
| 15>     N       17.6904772   19.2884889   17.7812953
| 16>     C       18.0647835   19.1864181   19.0944461
| 17>     S       18.1148576   20.5030097   20.0935574
| 18>     N       18.3889521   17.9321906   19.5466576
| 19>     C       18.3820027   16.6955493   18.7405866
| 20>     C       17.7513080   15.5360104   19.5136938
| 21>     C       18.3065171   14.2454999   19.4146717
| 22>     C       17.7576776   13.1690539   20.1311648
| 23>     C       16.6497922   13.3832848   20.9677111
| 24>     C       16.1039456   14.6679053   21.0862399
| 25>     O       15.0346750   14.8799659   21.8933496
| 26>     C       16.6522252   15.7376730   20.3715521
| 27>     H       15.4388844   16.5866363   18.1929412
| 28>     H       13.9569230   15.8569114   17.5967224
| 29>     H       15.0425603   16.6523657   16.4557017
| 30>     H       15.6666971   14.0816615   18.0358470
| 31>     H       15.1275695   14.1224448   16.3620336
| 32>     H       16.5305926   17.8766062   15.0291144
| 33>     H       18.0530389   18.7492337   14.8598988
| 34>     H       16.6153904   19.5780838   15.4953104
| 35>     H       17.4755274   20.2199298   17.4621693
| 36>     H       18.6396084   17.8854673   20.5265450
| 37>     H       19.4390342   16.4235065   18.6080310
| 38>     H       19.1609173   14.0715523   18.7649482
| 39>     H       18.1912608   12.1747535   20.0354656
| 40>     H       16.2224215   12.5543161   21.5226109
| 41>     H       14.8313024   14.0421214   22.3364828
| 42>     H       16.2097767   16.7221727   20.4848197
| 43> *
| 44>
| 45>                          ****END OF INPUT****

CARTESIAN COORDINATES (ANGSTROEM)
---------------------------------
  C     15.013168   16.028823   17.356156
  C     15.712127   14.671737   17.111353
  O     17.091581   14.715022   16.652596
  C     17.864723   15.807072   16.353062
  O     18.358946   15.906318   15.245247
  C     17.849544   16.953700   17.316152
  C     17.588281   18.214292   16.894647
  C     17.169911   18.632223   15.501219
  N     17.690477   19.288489   17.781295
  C     18.064784   19.186418   19.094446
  S     18.114858   20.503010   20.093557
  N     18.388952   17.932191   19.546658
  C     18.382003   16.695549   18.740587
  C     17.751308   15.536010   19.513694
  C     18.306517   14.245500   19.414672
  C     17.757678   13.169054   20.131165
  C     16.649792   13.383285   20.967711
  C     16.103946   14.667905   21.086240
  O     15.034675   14.879966   21.893350
  C     16.652225   15.737673   20.371552
  H     15.438884   16.586636   18.192941
  H     13.956923   15.856911   17.596722
  H     15.042560   16.652366   16.455702
  H     15.666697   14.081661   18.035847
  H     15.127569   14.122445   16.362034
  H     16.530593   17.876606   15.029114
  H     18.053039   18.749234   14.859899
  H     16.615390   19.578084   15.495310
  H     17.475527   20.219930   17.462169
  H     18.639608   17.885467   20.526545
  H     19.439034   16.423506   18.608031
  H     19.160917   14.071552   18.764948
  H     18.191261   12.174753   20.035466
  H     16.222421   12.554316   21.522611
  H     14.831302   14.042121   22.336483
  H     16.209777   16.722173   20.484820

 Total Charge           Charge          ....    0
 Multiplicity           Mult            ....    1
 Number of Electrons    NEL             ....  154
 Basis Dimension        Dim             ....  828

ORBITAL ENERGIES
----------------

  NO   OCC          E(Eh)            E(eV)
   0   2.0000     -91.890641     -2500.4715
   1   2.0000     -20.603555      -560.6512
   2   2.0000     -20.584957      -560.1452
   3   2.0000     -20.551204      -559.2267
   4   2.0000     -15.627296      -425.2403
   5   2.0000     -15.612268      -424.8314
   6   2.0000     -11.395765      -310.0945
   7   2.0000     -11.386765      -309.8496
   8   2.0000     -11.328925      -308.2757
   9   2.0000     -11.320971      -308.0593
  10   2.0000     -11.318692      -307.9973
  11   2.0000     -11.305689      -307.6435
  12   2.0000     -11.270549      -306.6872
  13   2.0000     -11.261555      -306.4425
  14   2.0000     -11.259993      -306.4000
  15   2.0000     -11.256360      -306.3011
  16   2.0000     -11.250756      -306.1486
  17   2.0000     -11.247278      -306.0540
  18   2.0000     -11.245922      -306.0171
  19   2.0000     -11.234970      -305.7191
  20   2.0000      -8.895744      -242.0655
  21   2.0000      -6.577329      -178.9782
  22   2.0000      -6.575307      -178.9232
  23   2.0000      -6.574728      -178.9074
  24   2.0000      -1.440230       -39.1907
  25   2.0000      -1.423438       -38.7337
  26   2.0000      -1.351905       -36.7872
  27   2.0000      -1.340292       -36.4712
  28   2.0000      -1.240941       -33.7677
  29   2.0000      -1.164449       -31.6863
  30   2.0000      -1.122794       -30.5528
  31   2.0000      -1.049307       -28.5531
  32   2.0000      -1.036595       -28.2072
  33   2.0000      -1.022940       -27.8356
  34   2.0000      -1.003147       -27.2970
  35   2.0000      -0.989336       -26.9212
  36   2.0000      -0.927500       -25.2386
  37   2.0000      -0.900428       -24.5019
  38   2.0000      -0.851604       -23.1733
  39   2.0000      -0.843710       -22.9585
  40   2.0000      -0.839901       -22.8549
  41   2.0000      -0.827618       -22.5206
  42   2.0000      -0.747140       -20.3307
  43   2.0000      -0.737454       -20.0671
  44   2.0000      -0.723118       -19.6770
  45   2.0000      -0.701964       -19.1014
  46   2.0000      -0.688257       -18.7284
  47   2.0000      -0.676871       -18.4186
  48   2.0000      -0.674085       -18.3428
  49   2.0000      -0.661132       -17.9903
  50   2.0000      -0.657638       -17.8952
  51   2.0000      -0.650229       -17.6936
  52   2.0000      -0.638661       -17.3788
  53   2.0000      -0.620063       -16.8728
  54   2.0000      -0.612888       -16.6775
  55   2.0000      -0.606690       -16.5089
  56   2.0000      -0.603140       -16.4123
  57   2.0000      -0.581919       -15.8348
  58   2.0000      -0.578088       -15.7306
  59   2.0000      -0.567739       -15.4490
  60   2.0000      -0.565654       -15.3922
  61   2.0000      -0.555644       -15.1198
  62   2.0000      -0.542561       -14.7638
  63   2.0000      -0.531073       -14.4512
  64   2.0000      -0.525554       -14.3010
  65   2.0000      -0.515773       -14.0349
  66   2.0000      -0.505225       -13.7479
  67   2.0000      -0.492348       -13.3975
  68   2.0000      -0.486242       -13.2313
  69   2.0000      -0.468868       -12.7585
  70   2.0000      -0.453964       -12.3530
  71   2.0000      -0.446517       -12.1503
  72   2.0000      -0.359215        -9.7747
  73   2.0000      -0.348396        -9.4803
  74   2.0000      -0.330339        -8.9890
  75   2.0000      -0.327623        -8.9151
  76   2.0000      -0.319651        -8.6981
  77   0.0000       0.083457         2.2710
  78   0.0000       0.098617         2.6835
  79   0.0000       0.119254         3.2451
  80   0.0000       0.125473         3.4143
  81   0.0000       0.128350         3.4926

MULLIKEN ATOMIC CHARGES
-----------------------
   0 C :   -0.339734
   1 C :    0.033302
   2 O :   -0.348203
   3 C :    0.398667
   4 O :   -0.366997
   5 C :   -0.233575
   6 C :    0.168387
   7 C :   -0.290237
   8 N :   -0.135659
   9 C :    0.214870
  10 S :   -0.441872
  11 N :   -0.233158
  12 C :    0.097653
  13 C :   -0.001252
  14 C :   -0.183853
  15 C :   -0.132018
  16 C :   -0.282843
  17 C :    0.325510
  18 O :   -0.356483
  19 C :   -0.276936
  20 H :    0.113551
  21 H :    0.128772
  22 H :    0.103726
  23 H :    0.108490
  24 H :    0.127163
  25 H :    0.118666
  26 H :    0.146225
  27 H :    0.099237
  28 H :    0.196638
  29 H :    0.206967
  30 H :    0.159643
  31 H :    0.149092
  32 H :    0.163951
  33 H :    0.134048
  34 H :    0.242379
  35 H :    0.185881
Sum of atomic charges:   -0.0000000

LOEWDIN ATOMIC CHARGES
----------------------
   0 C :    0.103915
   1 C :   -0.009953
   2 O :    0.288132
   3 C :   -0.423632
   4 O :    0.131427
   5 C :   -0.089062
   6 C :   -0.080137
   7 C :    0.128621
   8 N :    0.405128
   9 C :   -0.456153
  10 S :   -0.037104
  11 N :    0.396183
  12 C :   -0.050772
  13 C :   -0.040334
  14 C :    0.023861
  15 C :    0.043507
  16 C :   -0.001027
  17 C :   -0.195367
  18 O :    0.396271
  19 C :    0.027031
  20 H :   -0.035422
  21 H :   -0.019225
  22 H :   -0.031111
  23 H :   -0.025357
  24 H :   -0.023851
  25 H :   -0.012122
  26 H :   -0.003684
  27 H :   -0.020982
  28 H :   -0.057541
  29 H :   -0.064736
  30 H :   -0.011455
  31 H :   -0.026153
  32 H :   -0.018217
  33 H :   -0.033775
  34 H :   -0.152194
  35 H :   -0.024706

  Mayer bond orders larger than 0.100000
B(  0-C ,  1-C ) :   0.9628 B(  0-C , 20-H ) :   0.9676 B(  0-C , 21-H ) :   0.9747
B(  0-C , 22-H ) :   0.9747 B(  1-C ,  2-O ) :   0.8982 B(  1-C , 23-H ) :   0.9708
B(  1-C , 24-H ) :   0.9822 B(  2-O ,  3-C ) :   1.1573 B(  3-C ,  4-O ) :   2.1047
B(  3-C ,  5-C ) :   0.9193 B(  5-C ,  6-C ) :   1.7024 B(  5-C , 12-C ) :   0.9551
B(  6-C ,  7-C ) :   0.9501 B(  6-C ,  8-N ) :   1.1388 B(  7-C , 25-H ) :   0.9726
B(  7-C , 26-H ) :   0.9588 B(  7-C , 27-H ) :   0.9851 B(  8-N ,  9-C ) :   1.2023
B(  8-N , 28-H ) :   0.9502 B(  9-C , 10-S ) :   1.6041 B(  9-C , 11-N ) :   1.2913
B( 11-N , 12-C ) :   0.9843 B( 11-N , 29-H ) :   0.9417 B( 12-C , 13-C ) :   0.9490
B( 12-C , 30-H ) :   1.0002 B( 13-C , 14-C ) :   1.3733 B( 13-C , 19-C ) :   1.3397
B( 14-C , 15-C ) :   1.4076 B( 14-C , 31-H ) :   0.9743 B( 15-C , 16-C ) :   1.3504
B( 15-C , 32-H ) :   0.9701 B( 16-C , 17-C ) :   1.3361 B( 16-C , 33-H ) :   0.9843
B( 17-C , 18-O ) :   1.1089 B( 17-C , 19-C ) :   1.3585 B( 18-O , 34-H ) :   0.9783
B( 19-C , 35-H ) :   0.9519

MP2 TOTAL ENERGY:    -1274.317327153 Eh
FINAL SINGLE POINT ENERGY     -1274.317327153428

DIPOLE MOMENT
-------------
                                X             Y             Z
Electronic contribution:      8.38327       5.64059       5.88063
Nuclear contribution   :     -9.49679      -7.19150      -5.80461
                        -----------------------------------------
Total Dipole Moment    :     -1.11352      -1.55090       0.07602
                        -----------------------------------------
Magnitude (a.u.)       :      1.91076
Magnitude (Debye)      :      4.85676

Rotational constants in cm-1:     0.012932     0.009065     0.006457
Rotational constants in MHz :   387.679400   271.775099   193.577584

                             ****ORCA TERMINATED NORMALLY****
TOTAL RUN TIME: 0 days 2 hours 16 minutes 11 seconds 205 msec
