                         Program Version 4.2.0 -  RELEASE  -
|  1> ! ri-mp2 cc-pvtz cc-pvtz/c TightSCF  NoKeepInts
|  2>
|  3> %scf
|  4>   MaxCore 4096
|  5> end
|  6> *xyz  0  1
|  7>     C       15.3869412   14.2047807   17.0966941
|  8>     C       15.3841163   15.4974968   16.2541473
|  9>     O       16.6821259   15.7434183   15.6697363
| 10>     C       17.8014391   15.7332416   16.4514684
| 11>     O       18.4661065   14.7209683   16.5854196
| 12>     C       17.9369737   16.9142736   17.3677135
| 13>     C       17.4784370   18.1596418   17.0809793
| 14>     C       16.8000944   18.6291234   15.8099532
| 15>     N       17.7021380   19.2065697   17.9802344
| 16>     C       18.4948826   19.1254472   19.0945538
| 17>     S       18.7973457   20.4444430   20.0449922
| 18>     N       19.0249368   17.8926914   19.3804637
| 19>     C       18.6855518   16.6416087   18.6762967
| 20>     C       17.8781305   15.7206247   19.5850740
| 21>     C       18.2969129   14.3963460   19.8097166
| 22>     C       17.5477482   13.5384216   20.6322112
| 23>     C       16.3683229   14.0074970   21.2352983
| 24>     C       15.9463066   15.3249600   21.0116794
| 25>     O       14.8020298   15.7778243   21.5828372
| 26>     C       16.6938807   16.1768667   20.1926773
| 27>     H       15.7655141   13.3601592   16.5070327
| 28>     H       14.3703176   13.9614021   17.4277556
| 29>     H       16.0121288   14.3061865   17.9902850
| 30>     H       14.6397259   15.4081939   15.4524458
| 31>     H       15.0902347   16.3382812   16.8956470
| 32>     H       17.2341863   18.1434146   14.9267764
| 33>     H       16.9120176   19.7096565   15.6563431
| 34>     H       15.7273393   18.4054264   15.8272888
| 35>     H       17.3292212   20.1219490   17.7838529
| 36>     H       19.5851437   17.8545388   20.2225190
| 37>     H       19.6283584   16.1350830   18.4227134
| 38>     H       19.1977074   14.0246876   19.3266898
| 39>     H       17.8790342   12.5137938   20.7921696
| 40>     H       15.7852539   13.3466479   21.8681405
| 41>     H       14.4655643   15.0726222   22.1563285
| 42>     H       16.3508321   17.1937124   20.0358652
| 43> *
| 44>
| 45>                          ****END OF INPUT****

CARTESIAN COORDINATES (ANGSTROEM)
---------------------------------
  C     15.386941   14.204781   17.096694
  C     15.384116   15.497497   16.254147
  O     16.682126   15.743418   15.669736
  C     17.801439   15.733242   16.451468
  O     18.466106   14.720968   16.585420
  C     17.936974   16.914274   17.367714
  C     17.478437   18.159642   17.080979
  C     16.800094   18.629123   15.809953
  N     17.702138   19.206570   17.980234
  C     18.494883   19.125447   19.094554
  S     18.797346   20.444443   20.044992
  N     19.024937   17.892691   19.380464
  C     18.685552   16.641609   18.676297
  C     17.878131   15.720625   19.585074
  C     18.296913   14.396346   19.809717
  C     17.547748   13.538422   20.632211
  C     16.368323   14.007497   21.235298
  C     15.946307   15.324960   21.011679
  O     14.802030   15.777824   21.582837
  C     16.693881   16.176867   20.192677
  H     15.765514   13.360159   16.507033
  H     14.370318   13.961402   17.427756
  H     16.012129   14.306187   17.990285
  H     14.639726   15.408194   15.452446
  H     15.090235   16.338281   16.895647
  H     17.234186   18.143415   14.926776
  H     16.912018   19.709657   15.656343
  H     15.727339   18.405426   15.827289
  H     17.329221   20.121949   17.783853
  H     19.585144   17.854539   20.222519
  H     19.628358   16.135083   18.422713
  H     19.197707   14.024688   19.326690
  H     17.879034   12.513794   20.792170
  H     15.785254   13.346648   21.868140
  H     14.465564   15.072622   22.156328
  H     16.350832   17.193712   20.035865

 Total Charge           Charge          ....    0
 Multiplicity           Mult            ....    1
 Number of Electrons    NEL             ....  154
 Basis Dimension        Dim             ....  828

ORBITAL ENERGIES
----------------

  NO   OCC          E(Eh)            E(eV)
   0   2.0000     -91.890706     -2500.4732
   1   2.0000     -20.597806      -560.4948
   2   2.0000     -20.585075      -560.1484
   3   2.0000     -20.553790      -559.2971
   4   2.0000     -15.630922      -425.3390
   5   2.0000     -15.609827      -424.7650
   6   2.0000     -11.395117      -310.0769
   7   2.0000     -11.386101      -309.8316
   8   2.0000     -11.338218      -308.5286
   9   2.0000     -11.314346      -307.8790
  10   2.0000     -11.309399      -307.7444
  11   2.0000     -11.306318      -307.6605
  12   2.0000     -11.263329      -306.4908
  13   2.0000     -11.262372      -306.4647
  14   2.0000     -11.259555      -306.3881
  15   2.0000     -11.254316      -306.2455
  16   2.0000     -11.243939      -305.9631
  17   2.0000     -11.239861      -305.8522
  18   2.0000     -11.236743      -305.7673
  19   2.0000     -11.222564      -305.3815
  20   2.0000      -8.895775      -242.0663
  21   2.0000      -6.577350      -178.9788
  22   2.0000      -6.575341      -178.9241
  23   2.0000      -6.574754      -178.9081
  24   2.0000      -1.447451       -39.3871
  25   2.0000      -1.417587       -38.5745
  26   2.0000      -1.357228       -36.9321
  27   2.0000      -1.342249       -36.5245
  28   2.0000      -1.240187       -33.7472
  29   2.0000      -1.158533       -31.5253
  30   2.0000      -1.122887       -30.5553
  31   2.0000      -1.045878       -28.4598
  32   2.0000      -1.031433       -28.0667
  33   2.0000      -1.016008       -27.6470
  34   2.0000      -1.002660       -27.2838
  35   2.0000      -0.987444       -26.8697
  36   2.0000      -0.925980       -25.1972
  37   2.0000      -0.890433       -24.2299
  38   2.0000      -0.852830       -23.2067
  39   2.0000      -0.841122       -22.8881
  40   2.0000      -0.834391       -22.7049
  41   2.0000      -0.827673       -22.5221
  42   2.0000      -0.745419       -20.2839
  43   2.0000      -0.731494       -19.9050
  44   2.0000      -0.729309       -19.8455
  45   2.0000      -0.695890       -18.9361
  46   2.0000      -0.686627       -18.6841
  47   2.0000      -0.680711       -18.5231
  48   2.0000      -0.676068       -18.3967
  49   2.0000      -0.665193       -18.1008
  50   2.0000      -0.651388       -17.7252
  51   2.0000      -0.648737       -17.6530
  52   2.0000      -0.638485       -17.3741
  53   2.0000      -0.618260       -16.8237
  54   2.0000      -0.606840       -16.5130
  55   2.0000      -0.604576       -16.4513
  56   2.0000      -0.600979       -16.3535
  57   2.0000      -0.580469       -15.7954
  58   2.0000      -0.575565       -15.6619
  59   2.0000      -0.567324       -15.4377
  60   2.0000      -0.554447       -15.0873
  61   2.0000      -0.550025       -14.9670
  62   2.0000      -0.538666       -14.6578
  63   2.0000      -0.529344       -14.4042
  64   2.0000      -0.520828       -14.1725
  65   2.0000      -0.512540       -13.9469
  66   2.0000      -0.501136       -13.6366
  67   2.0000      -0.489048       -13.3077
  68   2.0000      -0.486276       -13.2322
  69   2.0000      -0.467467       -12.7204
  70   2.0000      -0.458683       -12.4814
  71   2.0000      -0.448902       -12.2152
  72   2.0000      -0.357791        -9.7360
  73   2.0000      -0.350251        -9.5308
  74   2.0000      -0.329992        -8.9795
  75   2.0000      -0.321847        -8.7579
  76   2.0000      -0.318411        -8.6644
  77   0.0000       0.070609         1.9214
  78   0.0000       0.104037         2.8310
  79   0.0000       0.118720         3.2305
  80   0.0000       0.130506         3.5512
  81   0.0000       0.137545         3.7428

MULLIKEN ATOMIC CHARGES
-----------------------
   0 C :   -0.283025
   1 C :    0.020267
   2 O :   -0.372151
   3 C :    0.458896
   4 O :   -0.387530
   5 C :   -0.229687
   6 C :    0.155128
   7 C :   -0.296542
   8 N :   -0.125609
   9 C :    0.199348
  10 S :   -0.437336
  11 N :   -0.199725
  12 C :    0.055398
  13 C :    0.007828
  14 C :   -0.154112
  15 C :   -0.136250
  16 C :   -0.271975
  17 C :    0.302102
  18 O :   -0.359736
  19 C :   -0.249997
  20 H :    0.113624
  21 H :    0.097297
  22 H :    0.109357
  23 H :    0.118852
  24 H :    0.083156
  25 H :    0.138023
  26 H :    0.112732
  27 H :    0.120765
  28 H :    0.197385
  29 H :    0.194482
  30 H :    0.156571
  31 H :    0.158517
  32 H :    0.161200
  33 H :    0.131711
  34 H :    0.241392
  35 H :    0.169646
Sum of atomic charges:   -0.0000000

LOEWDIN ATOMIC CHARGES
----------------------
   0 C :    0.110855
   1 C :   -0.021514
   2 O :    0.285589
   3 C :   -0.419960
   4 O :    0.130233
   5 C :   -0.094000
   6 C :   -0.073265
   7 C :    0.127369
   8 N :    0.404679
   9 C :   -0.458871
  10 S :   -0.034261
  11 N :    0.397593
  12 C :   -0.046240
  13 C :   -0.043955
  14 C :    0.021480
  15 C :    0.043057
  16 C :   -0.000823
  17 C :   -0.193412
  18 O :    0.394245
  19 C :    0.027280
  20 H :   -0.021530
  21 H :   -0.026285
  22 H :   -0.026418
  23 H :   -0.021734
  24 H :   -0.040383
  25 H :   -0.005871
  26 H :   -0.017530
  27 H :   -0.014150
  28 H :   -0.058118
  29 H :   -0.063491
  30 H :   -0.003873
  31 H :   -0.023706
  32 H :   -0.019567
  33 H :   -0.035059
  34 H :   -0.153471
  35 H :   -0.024892

  Mayer bond orders larger than 0.100000
B(  0-C ,  1-C ) :   0.9790 B(  0-C , 20-H ) :   0.9748 B(  0-C , 21-H ) :   0.9763
B(  0-C , 22-H ) :   0.9661 B(  1-C ,  2-O ) :   0.8982 B(  1-C , 23-H ) :   0.9783
B(  1-C , 24-H ) :   0.9707 B(  2-O ,  3-C ) :   1.1017 B(  3-C ,  4-O ) :   2.0621
B(  3-C ,  5-C ) :   0.9947 B(  5-C ,  6-C ) :   1.6629 B(  5-C , 12-C ) :   0.9647
B(  6-C ,  7-C ) :   0.9475 B(  6-C ,  8-N ) :   1.1432 B(  7-C , 25-H ) :   0.9671
B(  7-C , 26-H ) :   0.9869 B(  7-C , 27-H ) :   0.9659 B(  8-N ,  9-C ) :   1.1818
B(  8-N , 28-H ) :   0.9494 B(  9-C , 10-S ) :   1.6134 B(  9-C , 11-N ) :   1.3007
B( 11-N , 12-C ) :   0.9941 B( 11-N , 29-H ) :   0.9520 B( 12-C , 13-C ) :   0.9428
B( 12-C , 30-H ) :   0.9982 B( 13-C , 14-C ) :   1.3842 B( 13-C , 19-C ) :   1.3694
B( 14-C , 15-C ) :   1.3926 B( 14-C , 31-H ) :   0.9634 B( 15-C , 16-C ) :   1.3634
B( 15-C , 32-H ) :   0.9715 B( 16-C , 17-C ) :   1.3319 B( 16-C , 33-H ) :   0.9846
B( 17-C , 18-O ) :   1.1113 B( 17-C , 19-C ) :   1.3718 B( 18-O , 34-H ) :   0.9795
B( 19-C , 35-H ) :   0.9573

MP2 TOTAL ENERGY:    -1274.332777891 Eh
FINAL SINGLE POINT ENERGY     -1274.332777891037

DIPOLE MOMENT
-------------
                                X             Y             Z
Electronic contribution:      9.65762       8.84924       6.02828
Nuclear contribution   :    -11.12743      -9.81865      -6.48236
                        -----------------------------------------
Total Dipole Moment    :     -1.46981      -0.96941      -0.45408
                        -----------------------------------------
Magnitude (a.u.)       :      1.81832
Magnitude (Debye)      :      4.62181

Rotational constants in cm-1:     0.012010     0.009447     0.006738
Rotational constants in MHz :   360.054984   283.211558   201.991739

                             ****ORCA TERMINATED NORMALLY****
TOTAL RUN TIME: 0 days 1 hours 47 minutes 21 seconds 191 msec
