                         Program Version 5.0.0 -  RELEASE  -
|  1> ! ri-mp2 cc-pvtz cc-pvtz/c TightSCF NoKeepInts
|  2>
|  3> %scf
|  4>   MaxCore 4096
|  5> end
|  6> *xyz  0  1
|  7>     C       15.1473922   14.5039669   17.3052374
|  8>     C       15.4237349   15.6413911   16.3044942
|  9>     O       16.7366705   15.4467828   15.7362622
| 10>     C       17.8938628   15.6595905   16.4414328
| 11>     O       18.7528545   14.7978296   16.4813113
| 12>     C       17.9319186   16.8508278   17.3527391
| 13>     C       17.4745942   18.0782773   16.9982670
| 14>     C       16.8923925   18.5001139   15.6637467
| 15>     N       17.6269520   19.1580146   17.8718199
| 16>     C       18.3612765   19.1298901   19.0278823
| 17>     S       18.5748046   20.4821786   19.9550889
| 18>     N       18.9123727   17.9220688   19.3750519
| 19>     C       18.6576465   16.6420710   18.6856481
| 20>     C       17.8891273   15.6842099   19.5893342
| 21>     C       18.3049839   14.3462751   19.7181417
| 22>     C       17.5952916   13.4514158   20.5361333
| 23>     C       16.4582244   13.8968121   21.2314059
| 24>     C       16.0381762   15.2275476   21.1029918
| 25>     O       14.9333088   15.6574821   21.7624519
| 26>     C       16.7459639   16.1163964   20.2875993
| 27>     H       15.8814444   14.4954852   18.1163398
| 28>     H       15.1909000   13.5306116   16.8006565
| 29>     H       14.1511284   14.6145680   17.7500786
| 30>     H       14.6732594   15.6019612   15.5044019
| 31>     H       15.3245124   16.6056139   16.8138686
| 32>     H       17.1624904   17.8063490   14.8582326
| 33>     H       17.2732689   19.4832156   15.3587253
| 34>     H       15.7989242   18.5664741   15.7054433
| 35>     H       17.2453912   20.0579683   17.6258476
| 36>     H       19.4331684   17.9246233   20.2430393
| 37>     H       19.6343368   16.1870452   18.4636851
| 38>     H       19.1740604   13.9943215   19.1661851
| 39>     H       17.9246901   12.4172947   20.6225164
| 40>     H       15.9057951   13.2075850   21.8615293
| 41>     H       14.6203674   14.9241241   22.3135296
| 42>     H       16.4017138   17.1416174   20.2028811
| 43> *
| 44>
| 45>                          ****END OF INPUT****

CARTESIAN COORDINATES (ANGSTROEM)
---------------------------------
  C     15.147392   14.503967   17.305237
  C     15.423735   15.641391   16.304494
  O     16.736670   15.446783   15.736262
  C     17.893863   15.659591   16.441433
  O     18.752854   14.797830   16.481311
  C     17.931919   16.850828   17.352739
  C     17.474594   18.078277   16.998267
  C     16.892392   18.500114   15.663747
  N     17.626952   19.158015   17.871820
  C     18.361276   19.129890   19.027882
  S     18.574805   20.482179   19.955089
  N     18.912373   17.922069   19.375052
  C     18.657646   16.642071   18.685648
  C     17.889127   15.684210   19.589334
  C     18.304984   14.346275   19.718142
  C     17.595292   13.451416   20.536133
  C     16.458224   13.896812   21.231406
  C     16.038176   15.227548   21.102992
  O     14.933309   15.657482   21.762452
  C     16.745964   16.116396   20.287599
  H     15.881444   14.495485   18.116340
  H     15.190900   13.530612   16.800656
  H     14.151128   14.614568   17.750079
  H     14.673259   15.601961   15.504402
  H     15.324512   16.605614   16.813869
  H     17.162490   17.806349   14.858233
  H     17.273269   19.483216   15.358725
  H     15.798924   18.566474   15.705443
  H     17.245391   20.057968   17.625848
  H     19.433168   17.924623   20.243039
  H     19.634337   16.187045   18.463685
  H     19.174060   13.994321   19.166185
  H     17.924690   12.417295   20.622516
  H     15.905795   13.207585   21.861529
  H     14.620367   14.924124   22.313530
  H     16.401714   17.141617   20.202881

 Total Charge           Charge          ....    0
 Multiplicity           Mult            ....    1
 Number of Electrons    NEL             ....  154
 Basis Dimension        Dim             ....  828

ORBITAL ENERGIES
----------------

  NO   OCC          E(Eh)            E(eV)
   0   2.0000     -91.891142     -2500.4851
   1   2.0000     -20.598835      -560.5228
   2   2.0000     -20.594987      -560.4181
   3   2.0000     -20.551100      -559.2239
   4   2.0000     -15.630202      -425.3194
   5   2.0000     -15.611028      -424.7977
   6   2.0000     -11.397830      -310.1507
   7   2.0000     -11.387069      -309.8579
   8   2.0000     -11.336825      -308.4907
   9   2.0000     -11.315631      -307.9140
  10   2.0000     -11.311983      -307.8147
  11   2.0000     -11.306281      -307.6595
  12   2.0000     -11.266891      -306.5877
  13   2.0000     -11.266040      -306.5645
  14   2.0000     -11.261550      -306.4424
  15   2.0000     -11.255834      -306.2868
  16   2.0000     -11.245275      -305.9995
  17   2.0000     -11.241021      -305.8837
  18   2.0000     -11.237944      -305.8000
  19   2.0000     -11.224781      -305.4418
  20   2.0000      -8.896229      -242.0787
  21   2.0000      -6.577809      -178.9913
  22   2.0000      -6.575792      -178.9364
  23   2.0000      -6.575209      -178.9205
  24   2.0000      -1.447011       -39.3752
  25   2.0000      -1.418607       -38.6023
  26   2.0000      -1.358860       -36.9765
  27   2.0000      -1.342689       -36.5364
  28   2.0000      -1.241095       -33.7719
  29   2.0000      -1.160129       -31.5687
  30   2.0000      -1.124829       -30.6082
  31   2.0000      -1.047708       -28.5096
  32   2.0000      -1.034788       -28.1580
  33   2.0000      -1.017721       -27.6936
  34   2.0000      -1.005132       -27.3510
  35   2.0000      -0.989395       -26.9228
  36   2.0000      -0.927599       -25.2413
  37   2.0000      -0.889869       -24.2146
  38   2.0000      -0.855054       -23.2672
  39   2.0000      -0.842041       -22.9131
  40   2.0000      -0.835824       -22.7439
  41   2.0000      -0.831936       -22.6381
  42   2.0000      -0.747726       -20.3467
  43   2.0000      -0.738951       -20.1079
  44   2.0000      -0.730483       -19.8775
  45   2.0000      -0.696904       -18.9637
  46   2.0000      -0.687743       -18.7144
  47   2.0000      -0.680980       -18.5304
  48   2.0000      -0.677072       -18.4241
  49   2.0000      -0.660395       -17.9703
  50   2.0000      -0.656708       -17.8699
  51   2.0000      -0.648619       -17.6498
  52   2.0000      -0.639740       -17.4082
  53   2.0000      -0.618500       -16.8302
  54   2.0000      -0.608536       -16.5591
  55   2.0000      -0.606478       -16.5031
  56   2.0000      -0.601757       -16.3746
  57   2.0000      -0.584509       -15.9053
  58   2.0000      -0.576836       -15.6965
  59   2.0000      -0.567405       -15.4399
  60   2.0000      -0.560450       -15.2506
  61   2.0000      -0.549581       -14.9549
  62   2.0000      -0.546283       -14.8651
  63   2.0000      -0.531577       -14.4649
  64   2.0000      -0.521014       -14.1775
  65   2.0000      -0.513388       -13.9700
  66   2.0000      -0.501897       -13.6573
  67   2.0000      -0.497055       -13.5255
  68   2.0000      -0.484850       -13.1934
  69   2.0000      -0.469830       -12.7847
  70   2.0000      -0.458373       -12.4730
  71   2.0000      -0.448014       -12.1911
  72   2.0000      -0.358994        -9.7687
  73   2.0000      -0.351333        -9.5602
  74   2.0000      -0.330573        -8.9953
  75   2.0000      -0.323608        -8.8058
  76   2.0000      -0.319617        -8.6972
  77   0.0000       0.075453         2.0532
  78   0.0000       0.104320         2.8387
  79   0.0000       0.115880         3.1533
  80   0.0000       0.129305         3.5186
  81   0.0000       0.135179         3.6784

MULLIKEN ATOMIC CHARGES
-----------------------
   0 C :   -0.277802
   1 C :    0.021335
   2 O :   -0.343205
   3 C :    0.429029
   4 O :   -0.383492
   5 C :   -0.216678
   6 C :    0.144672
   7 C :   -0.319457
   8 N :   -0.130540
   9 C :    0.197988
  10 S :   -0.438034
  11 N :   -0.205270
  12 C :    0.061875
  13 C :   -0.000367
  14 C :   -0.173757
  15 C :   -0.134767
  16 C :   -0.271673
  17 C :    0.304883
  18 O :   -0.358990
  19 C :   -0.244032
  20 H :    0.105903
  21 H :    0.110987
  22 H :    0.094337
  23 H :    0.119882
  24 H :    0.086029
  25 H :    0.140431
  26 H :    0.128117
  27 H :    0.121508
  28 H :    0.197459
  29 H :    0.196639
  30 H :    0.162289
  31 H :    0.166481
  32 H :    0.162460
  33 H :    0.132248
  34 H :    0.241379
  35 H :    0.172135
Sum of atomic charges:   -0.0000000

LOEWDIN ATOMIC CHARGES
----------------------
   0 C :    0.110760
   1 C :   -0.022488
   2 O :    0.295499
   3 C :   -0.416468
   4 O :    0.124897
   5 C :   -0.087916
   6 C :   -0.086471
   7 C :    0.126457
   8 N :    0.403351
   9 C :   -0.459083
  10 S :   -0.035143
  11 N :    0.397737
  12 C :   -0.045251
  13 C :   -0.046167
  14 C :    0.020650
  15 C :    0.044005
  16 C :   -0.000347
  17 C :   -0.192806
  18 O :    0.395064
  19 C :    0.027146
  20 H :   -0.027143
  21 H :   -0.023362
  22 H :   -0.025999
  23 H :   -0.022376
  24 H :   -0.040932
  25 H :   -0.007101
  26 H :   -0.012535
  27 H :   -0.017267
  28 H :   -0.057106
  29 H :   -0.063098
  30 H :   -0.002950
  31 H :   -0.022273
  32 H :   -0.018863
  33 H :   -0.034724
  34 H :   -0.153221
  35 H :   -0.024477

  Mayer bond orders larger than 0.100000
B(  0-C ,  1-C ) :   0.9779 B(  0-C , 20-H ) :   0.9674 B(  0-C , 21-H ) :   0.9797
B(  0-C , 22-H ) :   0.9759 B(  1-C ,  2-O ) :   0.8959 B(  1-C , 23-H ) :   0.9808
B(  1-C , 24-H ) :   0.9669 B(  2-O ,  3-C ) :   1.1505 B(  3-C ,  4-O ) :   2.0812
B(  3-C ,  5-C ) :   0.9477 B(  5-C ,  6-C ) :   1.6796 B(  5-C , 12-C ) :   0.9568
B(  6-C ,  7-C ) :   0.9419 B(  6-C ,  8-N ) :   1.1262 B(  7-C , 25-H ) :   0.9727
B(  7-C , 26-H ) :   0.9791 B(  7-C , 27-H ) :   0.9647 B(  8-N ,  9-C ) :   1.1865
B(  8-N , 28-H ) :   0.9508 B(  9-C , 10-S ) :   1.6139 B(  9-C , 11-N ) :   1.2950
B( 11-N , 12-C ) :   0.9969 B( 11-N , 29-H ) :   0.9506 B( 12-C , 13-C ) :   0.9438
B( 12-C , 30-H ) :   0.9971 B( 13-C , 14-C ) :   1.3907 B( 13-C , 19-C ) :   1.3611
B( 14-C , 15-C ) :   1.3922 B( 14-C , 31-H ) :   0.9606 B( 15-C , 16-C ) :   1.3629
B( 15-C , 32-H ) :   0.9712 B( 16-C , 17-C ) :   1.3313 B( 16-C , 33-H ) :   0.9845
B( 17-C , 18-O ) :   1.1105 B( 17-C , 19-C ) :   1.3704 B( 18-O , 34-H ) :   0.9794
B( 19-C , 35-H ) :   0.9570

MP2 TOTAL ENERGY:    -1274.336724191 Eh
FINAL SINGLE POINT ENERGY     -1274.336724190683

DIPOLE MOMENT
-------------
                                X             Y             Z
Electronic contribution:      9.69946       7.91656       5.82829
Nuclear contribution   :    -11.22962      -8.79467      -6.22989
                        -----------------------------------------
Total Dipole Moment    :     -1.53016      -0.87811      -0.40160
                        -----------------------------------------
Magnitude (a.u.)       :      1.80935
Magnitude (Debye)      :      4.59901

Rotational constants in cm-1:     0.011881     0.009481     0.006762
Rotational constants in MHz :   356.171715   284.242644   202.725828

                             ****ORCA TERMINATED NORMALLY****
TOTAL RUN TIME: 0 days 1 hours 42 minutes 51 seconds 304 msec
