                         Program Version 4.2.0 -  RELEASE  -
|  1> ! ri-mp2 cc-pvtz cc-pvtz/c TightSCF  NoKeepInts
|  2>
|  3> %scf
|  4>   MaxCore 4096
|  5> end
|  6> *xyz  0  1
|  7>     C       14.5561937   14.4239015   16.6585325
|  8>     C       15.5874335   15.5491879   16.8382373
|  9>     O       16.8412117   15.0554867   16.3301243
| 10>     C       18.0625555   15.6242000   16.5953813
| 11>     O       19.0683226   14.9430816   16.5211758
| 12>     C       18.0471243   16.8697898   17.4201380
| 13>     C       17.5462890   18.0417175   16.9656867
| 14>     C       16.9752138   18.3190060   15.5914961
| 15>     N       17.6197982   19.1850038   17.7641164
| 16>     C       18.2681611   19.2531103   18.9701315
| 17>     S       18.3594443   20.6639300   19.8273823
| 18>     N       18.8356535   18.0908780   19.4329348
| 19>     C       18.7165355   16.7667153   18.7898784
| 20>     C       17.9688373   15.7755606   19.6772867
| 21>     C       18.4047978   14.4406581   19.7629158
| 22>     C       17.7090750   13.5082796   20.5501339
| 23>     C       16.5640201   13.9119786   21.2572514
| 24>     C       16.1222830   15.2388051   21.1704204
| 25>     O       15.0085678   15.6288733   21.8396210
| 26>     C       16.8165589   16.1653150   20.3858923
| 27>     H       14.8676784   13.5264579   17.2081470
| 28>     H       14.4504579   14.1603089   15.5987584
| 29>     H       13.5748490   14.7346157   17.0370137
| 30>     H       15.2562212   16.4399283   16.2938572
| 31>     H       15.6637283   15.7871648   17.9068401
| 32>     H       17.0283883   17.4453083   14.9302823
| 33>     H       17.5356245   19.1219913   15.0954841
| 34>     H       15.9254626   18.6312926   15.6528052
| 35>     H       17.2275259   20.0531814   17.4343850
| 36>     H       19.2919161   18.1675860   20.3333869
| 37>     H       19.7347623   16.3804138   18.6332133
| 38>     H       19.2794808   14.1199556   19.2005031
| 39>     H       18.0549706   12.4772432   20.6026404
| 40>     H       16.0219105   13.1935111   21.8632414
| 41>     H       14.7044274   14.8719972   22.3632993
| 42>     H       16.4515199   17.1855654   20.3314059
| 43> *
| 44>
| 45>                          ****END OF INPUT****

CARTESIAN COORDINATES (ANGSTROEM)
---------------------------------
  C     14.556194   14.423901   16.658532
  C     15.587433   15.549188   16.838237
  O     16.841212   15.055487   16.330124
  C     18.062555   15.624200   16.595381
  O     19.068323   14.943082   16.521176
  C     18.047124   16.869790   17.420138
  C     17.546289   18.041718   16.965687
  C     16.975214   18.319006   15.591496
  N     17.619798   19.185004   17.764116
  C     18.268161   19.253110   18.970132
  S     18.359444   20.663930   19.827382
  N     18.835653   18.090878   19.432935
  C     18.716535   16.766715   18.789878
  C     17.968837   15.775561   19.677287
  C     18.404798   14.440658   19.762916
  C     17.709075   13.508280   20.550134
  C     16.564020   13.911979   21.257251
  C     16.122283   15.238805   21.170420
  O     15.008568   15.628873   21.839621
  C     16.816559   16.165315   20.385892
  H     14.867678   13.526458   17.208147
  H     14.450458   14.160309   15.598758
  H     13.574849   14.734616   17.037014
  H     15.256221   16.439928   16.293857
  H     15.663728   15.787165   17.906840
  H     17.028388   17.445308   14.930282
  H     17.535625   19.121991   15.095484
  H     15.925463   18.631293   15.652805
  H     17.227526   20.053181   17.434385
  H     19.291916   18.167586   20.333387
  H     19.734762   16.380414   18.633213
  H     19.279481   14.119956   19.200503
  H     18.054971   12.477243   20.602640
  H     16.021911   13.193511   21.863241
  H     14.704427   14.871997   22.363299
  H     16.451520   17.185565   20.331406

 Total Charge           Charge          ....    0
 Multiplicity           Mult            ....    1
 Number of Electrons    NEL             ....  154
 Basis Dimension        Dim             ....  828

ORBITAL ENERGIES
----------------

  NO   OCC          E(Eh)            E(eV)
   0   2.0000     -91.890351     -2500.4636
   1   2.0000     -20.601222      -560.5877
   2   2.0000     -20.600035      -560.5554
   3   2.0000     -20.550028      -559.1947
   4   2.0000     -15.627276      -425.2398
   5   2.0000     -15.611931      -424.8223
   6   2.0000     -11.397676      -310.1465
   7   2.0000     -11.387147      -309.8600
   8   2.0000     -11.330113      -308.3080
   9   2.0000     -11.317023      -307.9518
  10   2.0000     -11.315280      -307.9044
  11   2.0000     -11.302700      -307.5621
  12   2.0000     -11.270229      -306.6785
  13   2.0000     -11.265264      -306.5434
  14   2.0000     -11.264006      -306.5092
  15   2.0000     -11.256963      -306.3175
  16   2.0000     -11.246157      -306.0235
  17   2.0000     -11.242398      -305.9212
  18   2.0000     -11.239153      -305.8329
  19   2.0000     -11.232018      -305.6387
  20   2.0000      -8.895466      -242.0579
  21   2.0000      -6.577054      -178.9707
  22   2.0000      -6.575028      -178.9156
  23   2.0000      -6.574452      -178.8999
  24   2.0000      -1.448594       -39.4182
  25   2.0000      -1.419851       -38.6361
  26   2.0000      -1.359942       -37.0059
  27   2.0000      -1.340653       -36.4810
  28   2.0000      -1.240373       -33.7523
  29   2.0000      -1.161575       -31.6081
  30   2.0000      -1.125939       -30.6384
  31   2.0000      -1.049376       -28.5550
  32   2.0000      -1.039974       -28.2991
  33   2.0000      -1.019270       -27.7358
  34   2.0000      -1.005644       -27.3650
  35   2.0000      -0.989699       -26.9311
  36   2.0000      -0.928273       -25.2596
  37   2.0000      -0.880153       -23.9502
  38   2.0000      -0.856329       -23.3019
  39   2.0000      -0.842408       -22.9231
  40   2.0000      -0.837438       -22.7878
  41   2.0000      -0.836733       -22.7687
  42   2.0000      -0.756828       -20.5943
  43   2.0000      -0.740268       -20.1437
  44   2.0000      -0.731908       -19.9162
  45   2.0000      -0.697884       -18.9904
  46   2.0000      -0.688601       -18.7378
  47   2.0000      -0.681658       -18.5488
  48   2.0000      -0.677536       -18.4367
  49   2.0000      -0.662554       -18.0290
  50   2.0000      -0.657668       -17.8961
  51   2.0000      -0.650967       -17.7137
  52   2.0000      -0.640138       -17.4190
  53   2.0000      -0.612290       -16.6613
  54   2.0000      -0.608055       -16.5460
  55   2.0000      -0.603817       -16.4307
  56   2.0000      -0.595141       -16.1946
  57   2.0000      -0.583333       -15.8733
  58   2.0000      -0.577864       -15.7245
  59   2.0000      -0.571987       -15.5646
  60   2.0000      -0.564230       -15.3535
  61   2.0000      -0.557773       -15.1778
  62   2.0000      -0.552245       -15.0274
  63   2.0000      -0.527064       -14.3421
  64   2.0000      -0.518525       -14.1098
  65   2.0000      -0.515964       -14.0401
  66   2.0000      -0.504771       -13.7355
  67   2.0000      -0.502612       -13.6768
  68   2.0000      -0.488932       -13.3045
  69   2.0000      -0.470449       -12.8016
  70   2.0000      -0.454306       -12.3623
  71   2.0000      -0.450897       -12.2695
  72   2.0000      -0.357566        -9.7299
  73   2.0000      -0.351876        -9.5750
  74   2.0000      -0.330008        -8.9800
  75   2.0000      -0.324773        -8.8375
  76   2.0000      -0.319029        -8.6812
  77   0.0000       0.085035         2.3139
  78   0.0000       0.104311         2.8384
  79   0.0000       0.113226         3.0810
  80   0.0000       0.128614         3.4998
  81   0.0000       0.131604         3.5811

MULLIKEN ATOMIC CHARGES
-----------------------
   0 C :   -0.260631
   1 C :    0.019327
   2 O :   -0.305374
   3 C :    0.397645
   4 O :   -0.382602
   5 C :   -0.200253
   6 C :    0.154876
   7 C :   -0.331124
   8 N :   -0.140467
   9 C :    0.204369
  10 S :   -0.440471
  11 N :   -0.218117
  12 C :    0.079527
  13 C :    0.026160
  14 C :   -0.199279
  15 C :   -0.131445
  16 C :   -0.274980
  17 C :    0.325430
  18 O :   -0.357684
  19 C :   -0.294451
  20 H :    0.107613
  21 H :    0.101587
  22 H :    0.088569
  23 H :    0.084450
  24 H :    0.109426
  25 H :    0.126403
  26 H :    0.142470
  27 H :    0.119656
  28 H :    0.196271
  29 H :    0.199612
  30 H :    0.165423
  31 H :    0.170029
  32 H :    0.164216
  33 H :    0.132484
  34 H :    0.241548
  35 H :    0.179785
Sum of atomic charges:   -0.0000000

LOEWDIN ATOMIC CHARGES
----------------------
   0 C :    0.112469
   1 C :   -0.025008
   2 O :    0.307615
   3 C :   -0.415828
   4 O :    0.123259
   5 C :   -0.081686
   6 C :   -0.100672
   7 C :    0.122667
   8 N :    0.401652
   9 C :   -0.456159
  10 S :   -0.037401
  11 N :    0.397278
  12 C :   -0.043843
  13 C :   -0.043797
  14 C :    0.022721
  15 C :    0.045966
  16 C :   -0.000050
  17 C :   -0.194156
  18 O :    0.394820
  19 C :    0.025917
  20 H :   -0.022198
  21 H :   -0.026176
  22 H :   -0.025123
  23 H :   -0.038614
  24 H :   -0.032867
  25 H :   -0.008366
  26 H :   -0.009156
  27 H :   -0.018027
  28 H :   -0.057591
  29 H :   -0.063613
  30 H :   -0.002132
  31 H :   -0.021522
  32 H :   -0.018252
  33 H :   -0.034586
  34 H :   -0.152889
  35 H :   -0.024651

  Mayer bond orders larger than 0.100000
B(  0-C ,  1-C ) :   0.9859 B(  0-C , 20-H ) :   0.9788 B(  0-C , 21-H ) :   0.9792
B(  0-C , 22-H ) :   0.9770 B(  1-C ,  2-O ) :   0.9109 B(  1-C , 23-H ) :   0.9718
B(  1-C , 24-H ) :   0.9589 B(  2-O ,  3-C ) :   1.1911 B(  3-C ,  4-O ) :   2.0915
B(  3-C ,  5-C ) :   0.9222 B(  5-C ,  6-C ) :   1.6785 B(  5-C , 12-C ) :   0.9553
B(  6-C ,  7-C ) :   0.9452 B(  6-C ,  8-N ) :   1.1195 B(  7-C , 25-H ) :   0.9806
B(  7-C , 26-H ) :   0.9672 B(  7-C , 27-H ) :   0.9672 B(  8-N ,  9-C ) :   1.1957
B(  8-N , 28-H ) :   0.9524 B(  9-C , 10-S ) :   1.6109 B(  9-C , 11-N ) :   1.2875
B( 11-N , 12-C ) :   0.9949 B( 11-N , 29-H ) :   0.9485 B( 12-C , 13-C ) :   0.9437
B( 12-C , 30-H ) :   0.9971 B( 13-C , 14-C ) :   1.3886 B( 13-C , 19-C ) :   1.3413
B( 14-C , 15-C ) :   1.3975 B( 14-C , 31-H ) :   0.9602 B( 15-C , 16-C ) :   1.3631
B( 15-C , 32-H ) :   0.9697 B( 16-C , 17-C ) :   1.3304 B( 16-C , 33-H ) :   0.9843
B( 17-C , 18-O ) :   1.1098 B( 17-C , 19-C ) :   1.3625 B( 18-O , 34-H ) :   0.9793
B( 19-C , 35-H ) :   0.9581

MP2 TOTAL ENERGY:    -1274.334051728 Eh
FINAL SINGLE POINT ENERGY     -1274.334051727650

DIPOLE MOMENT
-------------
                                X             Y             Z
Electronic contribution:     10.66017       8.34177       7.19669
Nuclear contribution   :    -12.18020      -9.34869      -7.61131
                        -----------------------------------------
Total Dipole Moment    :     -1.52004      -1.00693      -0.41462
                        -----------------------------------------
Magnitude (a.u.)       :      1.86985
Magnitude (Debye)      :      4.75277

Rotational constants in cm-1:     0.011854     0.009087     0.006732
Rotational constants in MHz :   355.366903   272.408841   201.829411

                             ****ORCA TERMINATED NORMALLY****
TOTAL RUN TIME: 0 days 1 hours 46 minutes 32 seconds 470 msec
