                         Program Version 4.2.0 -  RELEASE  -
|  1> ! ri-mp2 cc-pvtz cc-pvtz/c TightSCF  NoKeepInts
|  2>
|  3> %scf
|  4>   MaxCore 4096
|  5> end
|  6> *xyz  0  1
|  7>     C       14.9226589   13.8499553   16.5767225
|  8>     C       15.6778105   15.1031803   17.0473576
|  9>     O       16.9352056   15.1249686   16.3464593
| 10>     C       17.5625602   16.3154164   16.1158575
| 11>     O       17.5972848   16.7552096   14.9817674
| 12>     C       17.7678504   17.1838174   17.3222373
| 13>     C       17.4199003   18.4932680   17.3184649
| 14>     C       16.6335679   19.2173128   16.2477887
| 15>     N       17.8273162   19.3281666   18.3621920
| 16>     C       18.7600321   18.9856223   19.3057528
| 17>     S       19.3238088   20.0748114   20.4147913
| 18>     N       19.2071546   17.6874926   19.2814589
| 19>     C       18.6172413   16.6063779   18.4675174
| 20>     C       17.8759144   15.6323739   19.3747318
| 21>     C       18.1534222   14.2536435   19.3108802
| 22>     C       17.4695361   13.3476535   20.1386514
| 23>     C       16.5042528   13.8231346   21.0424053
| 24>     C       16.2300711   15.1954873   21.1147183
| 25>     O       15.2943150   15.6570481   21.9813793
| 26>     C       16.9093522   16.0953789   20.2873574
| 27>     H       13.9370244   13.7913093   17.0539782
| 28>     H       15.4841951   12.9432959   16.8342907
| 29>     H       14.7788196   13.8709783   15.4890123
| 30>     H       15.0838207   15.9908258   16.7908651
| 31>     H       15.8006871   15.0678393   18.1314509
| 32>     H       15.8114606   18.5945209   15.8739327
| 33>     H       17.2801606   19.4487214   15.3911349
| 34>     H       16.1965345   20.1565566   16.6067441
| 35>     H       17.5286753   20.2905914   18.3767388
| 36>     H       19.8802892   17.4604373   20.0026243
| 37>     H       19.4509290   16.0593103   18.0045973
| 38>     H       18.8937535   13.8799091   18.6078474
| 39>     H       17.6883482   12.2826849   20.0776267
| 40>     H       15.9738738   13.1262869   21.6834103
| 41>     H       14.9873294   14.9046209   22.5097374
| 42>     H       16.6818437   17.1537925   20.3615174
| 43> *
| 44>
| 45>                          ****END OF INPUT****

CARTESIAN COORDINATES (ANGSTROEM)
---------------------------------
  C     14.922659   13.849955   16.576722
  C     15.677810   15.103180   17.047358
  O     16.935206   15.124969   16.346459
  C     17.562560   16.315416   16.115858
  O     17.597285   16.755210   14.981767
  C     17.767850   17.183817   17.322237
  C     17.419900   18.493268   17.318465
  C     16.633568   19.217313   16.247789
  N     17.827316   19.328167   18.362192
  C     18.760032   18.985622   19.305753
  S     19.323809   20.074811   20.414791
  N     19.207155   17.687493   19.281459
  C     18.617241   16.606378   18.467517
  C     17.875914   15.632374   19.374732
  C     18.153422   14.253643   19.310880
  C     17.469536   13.347653   20.138651
  C     16.504253   13.823135   21.042405
  C     16.230071   15.195487   21.114718
  O     15.294315   15.657048   21.981379
  C     16.909352   16.095379   20.287357
  H     13.937024   13.791309   17.053978
  H     15.484195   12.943296   16.834291
  H     14.778820   13.870978   15.489012
  H     15.083821   15.990826   16.790865
  H     15.800687   15.067839   18.131451
  H     15.811461   18.594521   15.873933
  H     17.280161   19.448721   15.391135
  H     16.196534   20.156557   16.606744
  H     17.528675   20.290591   18.376739
  H     19.880289   17.460437   20.002624
  H     19.450929   16.059310   18.004597
  H     18.893753   13.879909   18.607847
  H     17.688348   12.282685   20.077627
  H     15.973874   13.126287   21.683410
  H     14.987329   14.904621   22.509737
  H     16.681844   17.153792   20.361517

 Total Charge           Charge          ....    0
 Multiplicity           Mult            ....    1
 Number of Electrons    NEL             ....  154
 Basis Dimension        Dim             ....  828

ORBITAL ENERGIES
----------------

  NO   OCC          E(Eh)            E(eV)
   0   2.0000     -91.891320     -2500.4899
   1   2.0000     -20.602893      -560.6332
   2   2.0000     -20.585177      -560.1511
   3   2.0000     -20.554872      -559.3265
   4   2.0000     -15.629273      -425.2941
   5   2.0000     -15.611621      -424.8138
   6   2.0000     -11.393525      -310.0336
   7   2.0000     -11.386490      -309.8421
   8   2.0000     -11.333033      -308.3875
   9   2.0000     -11.321189      -308.0652
  10   2.0000     -11.317456      -307.9636
  11   2.0000     -11.296371      -307.3899
  12   2.0000     -11.266551      -306.5784
  13   2.0000     -11.262475      -306.4675
  14   2.0000     -11.259788      -306.3944
  15   2.0000     -11.256085      -306.2936
  16   2.0000     -11.250837      -306.1508
  17   2.0000     -11.245333      -306.0011
  18   2.0000     -11.245225      -305.9981
  19   2.0000     -11.227208      -305.5079
  20   2.0000      -8.896367      -242.0824
  21   2.0000      -6.577938      -178.9948
  22   2.0000      -6.575935      -178.9403
  23   2.0000      -6.575344      -178.9242
  24   2.0000      -1.448403       -39.4130
  25   2.0000      -1.422694       -38.7135
  26   2.0000      -1.356586       -36.9146
  27   2.0000      -1.341630       -36.5076
  28   2.0000      -1.241224       -33.7754
  29   2.0000      -1.164243       -31.6807
  30   2.0000      -1.123194       -30.5637
  31   2.0000      -1.048865       -28.5411
  32   2.0000      -1.034709       -28.1559
  33   2.0000      -1.022632       -27.8272
  34   2.0000      -1.001420       -27.2500
  35   2.0000      -0.987959       -26.8837
  36   2.0000      -0.927818       -25.2472
  37   2.0000      -0.875792       -23.8315
  38   2.0000      -0.852059       -23.1857
  39   2.0000      -0.844636       -22.9837
  40   2.0000      -0.841317       -22.8934
  41   2.0000      -0.835864       -22.7450
  42   2.0000      -0.759485       -20.6666
  43   2.0000      -0.737267       -20.0621
  44   2.0000      -0.728335       -19.8190
  45   2.0000      -0.702063       -19.1041
  46   2.0000      -0.692279       -18.8379
  47   2.0000      -0.681796       -18.5526
  48   2.0000      -0.675156       -18.3719
  49   2.0000      -0.662344       -18.0233
  50   2.0000      -0.650868       -17.7110
  51   2.0000      -0.649448       -17.6724
  52   2.0000      -0.639731       -17.4080
  53   2.0000      -0.613534       -16.6951
  54   2.0000      -0.608307       -16.5529
  55   2.0000      -0.603950       -16.4343
  56   2.0000      -0.598780       -16.2936
  57   2.0000      -0.582590       -15.8531
  58   2.0000      -0.576052       -15.6752
  59   2.0000      -0.566448       -15.4138
  60   2.0000      -0.557712       -15.1761
  61   2.0000      -0.551380       -15.0038
  62   2.0000      -0.542850       -14.7717
  63   2.0000      -0.530456       -14.4344
  64   2.0000      -0.519254       -14.1296
  65   2.0000      -0.515448       -14.0261
  66   2.0000      -0.506325       -13.7778
  67   2.0000      -0.501229       -13.6391
  68   2.0000      -0.482241       -13.1225
  69   2.0000      -0.470835       -12.8121
  70   2.0000      -0.453433       -12.3385
  71   2.0000      -0.450482       -12.2582
  72   2.0000      -0.358031        -9.7425
  73   2.0000      -0.354765        -9.6536
  74   2.0000      -0.331400        -9.0179
  75   2.0000      -0.328893        -8.9496
  76   2.0000      -0.319006        -8.6806
  77   0.0000       0.075347         2.0503
  78   0.0000       0.100334         2.7302
  79   0.0000       0.118566         3.2263
  80   0.0000       0.126104         3.4315
  81   0.0000       0.128802         3.5049

MULLIKEN ATOMIC CHARGES
-----------------------
   0 C :   -0.259740
   1 C :    0.026556
   2 O :   -0.339765
   3 C :    0.400681
   4 O :   -0.364404
   5 C :   -0.213020
   6 C :    0.153113
   7 C :   -0.280378
   8 N :   -0.125617
   9 C :    0.197377
  10 S :   -0.434246
  11 N :   -0.194906
  12 C :    0.028362
  13 C :    0.026812
  14 C :   -0.169786
  15 C :   -0.139749
  16 C :   -0.270505
  17 C :    0.301285
  18 O :   -0.355452
  19 C :   -0.245542
  20 H :    0.086544
  21 H :    0.096246
  22 H :    0.106541
  23 H :    0.090811
  24 H :    0.115021
  25 H :    0.119698
  26 H :    0.142831
  27 H :    0.095890
  28 H :    0.198043
  29 H :    0.192020
  30 H :    0.153082
  31 H :    0.149491
  32 H :    0.164392
  33 H :    0.134635
  34 H :    0.241486
  35 H :    0.172193
Sum of atomic charges:    0.0000000

LOEWDIN ATOMIC CHARGES
----------------------
   0 C :    0.111386
   1 C :   -0.020272
   2 O :    0.293342
   3 C :   -0.423834
   4 O :    0.137123
   5 C :   -0.093345
   6 C :   -0.074302
   7 C :    0.129430
   8 N :    0.405129
   9 C :   -0.458009
  10 S :   -0.032696
  11 N :    0.396594
  12 C :   -0.052812
  13 C :   -0.044414
  14 C :    0.016305
  15 C :    0.043122
  16 C :    0.000080
  17 C :   -0.192644
  18 O :    0.397307
  19 C :    0.031269
  20 H :   -0.026365
  21 H :   -0.027123
  22 H :   -0.023913
  23 H :   -0.034488
  24 H :   -0.036669
  25 H :   -0.010108
  26 H :   -0.003111
  27 H :   -0.021664
  28 H :   -0.057628
  29 H :   -0.064654
  30 H :   -0.007479
  31 H :   -0.028246
  32 H :   -0.018928
  33 H :   -0.033720
  34 H :   -0.152449
  35 H :   -0.022212

  Mayer bond orders larger than 0.100000
B(  0-C ,  1-C ) :   0.9843 B(  0-C , 20-H ) :   0.9763 B(  0-C , 21-H ) :   0.9788
B(  0-C , 22-H ) :   0.9787 B(  1-C ,  2-O ) :   0.8854 B(  1-C , 23-H ) :   0.9778
B(  1-C , 24-H ) :   0.9610 B(  2-O ,  3-C ) :   1.1603 B(  3-C ,  4-O ) :   2.1048
B(  3-C ,  5-C ) :   0.9562 B(  5-C ,  6-C ) :   1.6955 B(  5-C , 12-C ) :   0.9670
B(  6-C ,  7-C ) :   0.9572 B(  6-C ,  8-N ) :   1.1318 B(  7-C , 25-H ) :   0.9727
B(  7-C , 26-H ) :   0.9572 B(  7-C , 27-H ) :   0.9852 B(  8-N ,  9-C ) :   1.1868
B(  8-N , 28-H ) :   0.9498 B(  9-C , 10-S ) :   1.6194 B(  9-C , 11-N ) :   1.2879
B( 11-N , 12-C ) :   0.9960 B( 11-N , 29-H ) :   0.9523 B( 12-C , 13-C ) :   0.9331
B( 12-C , 30-H ) :   1.0117 B( 13-C , 14-C ) :   1.3731 B( 13-C , 19-C ) :   1.3656
B( 14-C , 15-C ) :   1.3899 B( 14-C , 31-H ) :   0.9702 B( 15-C , 16-C ) :   1.3656
B( 15-C , 32-H ) :   0.9699 B( 16-C , 17-C ) :   1.3274 B( 16-C , 33-H ) :   0.9834
B( 17-C , 18-O ) :   1.1150 B( 17-C , 19-C ) :   1.3740 B( 18-O , 34-H ) :   0.9789
B( 19-C , 35-H ) :   0.9572

MP2 TOTAL ENERGY:    -1274.323525114 Eh
FINAL SINGLE POINT ENERGY     -1274.323525113889

DIPOLE MOMENT
-------------
                                X             Y             Z
Electronic contribution:     11.12644       9.46483       6.35075
Nuclear contribution   :    -12.46631     -10.97985      -6.04378
                        -----------------------------------------
Total Dipole Moment    :     -1.33987      -1.51502       0.30698
                        -----------------------------------------
Magnitude (a.u.)       :      2.04567
Magnitude (Debye)      :      5.19968

Rotational constants in cm-1:     0.011869     0.009399     0.006269
Rotational constants in MHz :   355.821121   281.763578   187.927512

                             ****ORCA TERMINATED NORMALLY****
TOTAL RUN TIME: 0 days 1 hours 48 minutes 42 seconds 623 msec
