                         Program Version 4.2.0 -  RELEASE  -
|  1> ! ri-mp2 cc-pvtz cc-pvtz/c TightSCF  NoKeepInts
|  2>
|  3> %scf
|  4>   MaxCore 4096
|  5> end
|  6> *xyz  0  1
|  7>     C       15.2260739   14.2565715   17.2068904
|  8>     C       15.3573611   15.6237181   16.5079246
|  9>     O       16.5942941   15.6600792   15.7662785
| 10>     C       17.7814181   15.7081874   16.4411875
| 11>     O       18.4903874   14.7215095   16.5247483
| 12>     C       17.9551090   16.8981355   17.3369484
| 13>     C       17.5104208   18.1430993   17.0331342
| 14>     C       16.8229550   18.5901703   15.7594832
| 15>     N       17.7514451   19.2014715   17.9135205
| 16>     C       18.5308101   19.1216412   19.0376705
| 17>     S       18.8384594   20.4467824   19.9776976
| 18>     N       19.0413453   17.8851186   19.3445156
| 19>     C       18.7114896   16.6311837   18.6402743
| 20>     C       17.9086832   15.7023049   19.5449228
| 21>     C       18.3340277   14.3795056   19.7650561
| 22>     C       17.5852755   13.5131637   20.5790890
| 23>     C       16.3988347   13.9718214   21.1764652
| 24>     C       15.9698751   15.2875587   20.9561582
| 25>     O       14.8179345   15.7300842   21.5198267
| 26>     C       16.7177966   16.1483002   20.1468620
| 27>     H       16.0221045   14.1079653   17.9459903
| 28>     H       15.2851047   13.4419530   16.4742334
| 29>     H       14.2640281   14.1813191   17.7277264
| 30>     H       14.5165400   15.7510622   15.8139914
| 31>     H       15.3085977   16.4288248   17.2522982
| 32>     H       17.1884100   18.0280771   14.8906361
| 33>     H       17.0082740   19.6499025   15.5439252
| 34>     H       15.7380304   18.4469885   15.8231599
| 35>     H       17.3936614   20.1196310   17.7019229
| 36>     H       19.5914027   17.8499011   20.1934433
| 37>     H       19.6570836   16.1318010   18.3827164
| 38>     H       19.2394730   14.0154230   19.2849085
| 39>     H       17.9217134   12.4896964   20.7359310
| 40>     H       15.8155331   13.3039912   21.8017622
| 41>     H       14.4833057   15.0211809   22.0899884
| 42>     H       16.3697418   17.1638758   19.9927128
| 43> *
| 44>
| 45>                          ****END OF INPUT****

CARTESIAN COORDINATES (ANGSTROEM)
---------------------------------
  C     15.226074   14.256571   17.206890
  C     15.357361   15.623718   16.507925
  O     16.594294   15.660079   15.766278
  C     17.781418   15.708187   16.441188
  O     18.490387   14.721509   16.524748
  C     17.955109   16.898135   17.336948
  C     17.510421   18.143099   17.033134
  C     16.822955   18.590170   15.759483
  N     17.751445   19.201472   17.913520
  C     18.530810   19.121641   19.037671
  S     18.838459   20.446782   19.977698
  N     19.041345   17.885119   19.344516
  C     18.711490   16.631184   18.640274
  C     17.908683   15.702305   19.544923
  C     18.334028   14.379506   19.765056
  C     17.585276   13.513164   20.579089
  C     16.398835   13.971821   21.176465
  C     15.969875   15.287559   20.956158
  O     14.817934   15.730084   21.519827
  C     16.717797   16.148300   20.146862
  H     16.022105   14.107965   17.945990
  H     15.285105   13.441953   16.474233
  H     14.264028   14.181319   17.727726
  H     14.516540   15.751062   15.813991
  H     15.308598   16.428825   17.252298
  H     17.188410   18.028077   14.890636
  H     17.008274   19.649902   15.543925
  H     15.738030   18.446988   15.823160
  H     17.393661   20.119631   17.701923
  H     19.591403   17.849901   20.193443
  H     19.657084   16.131801   18.382716
  H     19.239473   14.015423   19.284909
  H     17.921713   12.489696   20.735931
  H     15.815533   13.303991   21.801762
  H     14.483306   15.021181   22.089988
  H     16.369742   17.163876   19.992713

 Total Charge           Charge          ....    0
 Multiplicity           Mult            ....    1
 Number of Electrons    NEL             ....  154
 Basis Dimension        Dim             ....  828

ORBITAL ENERGIES
----------------

  NO   OCC          E(Eh)            E(eV)
   0   2.0000     -91.891005     -2500.4814
   1   2.0000     -20.599095      -560.5299
   2   2.0000     -20.588040      -560.2291
   3   2.0000     -20.553679      -559.2940
   4   2.0000     -15.630817      -425.3361
   5   2.0000     -15.610633      -424.7869
   6   2.0000     -11.395099      -310.0764
   7   2.0000     -11.386763      -309.8496
   8   2.0000     -11.336929      -308.4935
   9   2.0000     -11.315511      -307.9107
  10   2.0000     -11.310653      -307.7785
  11   2.0000     -11.304711      -307.6168
  12   2.0000     -11.264615      -306.5258
  13   2.0000     -11.262496      -306.4681
  14   2.0000     -11.260857      -306.4235
  15   2.0000     -11.255437      -306.2760
  16   2.0000     -11.244983      -305.9915
  17   2.0000     -11.241130      -305.8867
  18   2.0000     -11.238043      -305.8027
  19   2.0000     -11.222319      -305.3748
  20   2.0000      -8.896082      -242.0747
  21   2.0000      -6.577659      -178.9872
  22   2.0000      -6.575647      -178.9325
  23   2.0000      -6.575062      -178.9165
  24   2.0000      -1.448458       -39.4146
  25   2.0000      -1.418852       -38.6089
  26   2.0000      -1.358426       -36.9647
  27   2.0000      -1.342322       -36.5264
  28   2.0000      -1.240588       -33.7581
  29   2.0000      -1.159874       -31.5618
  30   2.0000      -1.124011       -30.5859
  31   2.0000      -1.047085       -28.4926
  32   2.0000      -1.031523       -28.0692
  33   2.0000      -1.017215       -27.6798
  34   2.0000      -1.003638       -27.3104
  35   2.0000      -0.988397       -26.8957
  36   2.0000      -0.926767       -25.2186
  37   2.0000      -0.887079       -24.1386
  38   2.0000      -0.853814       -23.2335
  39   2.0000      -0.841912       -22.9096
  40   2.0000      -0.835666       -22.7396
  41   2.0000      -0.831207       -22.6183
  42   2.0000      -0.747201       -20.3324
  43   2.0000      -0.734951       -19.9990
  44   2.0000      -0.730382       -19.8747
  45   2.0000      -0.697215       -18.9722
  46   2.0000      -0.687407       -18.7053
  47   2.0000      -0.680318       -18.5124
  48   2.0000      -0.676685       -18.4135
  49   2.0000      -0.664629       -18.0855
  50   2.0000      -0.653164       -17.7735
  51   2.0000      -0.649130       -17.6637
  52   2.0000      -0.639599       -17.4044
  53   2.0000      -0.614063       -16.7095
  54   2.0000      -0.608222       -16.5506
  55   2.0000      -0.604944       -16.4614
  56   2.0000      -0.600800       -16.3486
  57   2.0000      -0.581562       -15.8251
  58   2.0000      -0.576649       -15.6914
  59   2.0000      -0.568957       -15.4821
  60   2.0000      -0.556628       -15.1466
  61   2.0000      -0.553623       -15.0649
  62   2.0000      -0.540182       -14.6991
  63   2.0000      -0.528251       -14.3744
  64   2.0000      -0.520968       -14.1763
  65   2.0000      -0.513158       -13.9637
  66   2.0000      -0.502027       -13.6609
  67   2.0000      -0.491212       -13.3666
  68   2.0000      -0.487238       -13.2584
  69   2.0000      -0.468699       -12.7539
  70   2.0000      -0.459823       -12.5124
  71   2.0000      -0.448016       -12.1911
  72   2.0000      -0.357803        -9.7363
  73   2.0000      -0.351482        -9.5643
  74   2.0000      -0.330375        -8.9900
  75   2.0000      -0.323055        -8.7908
  76   2.0000      -0.318854        -8.6764
  77   0.0000       0.071621         1.9489
  78   0.0000       0.102893         2.7998
  79   0.0000       0.117659         3.2017
  80   0.0000       0.128708         3.5023
  81   0.0000       0.137066         3.7297

MULLIKEN ATOMIC CHARGES
-----------------------
   0 C :   -0.276037
   1 C :    0.004434
   2 O :   -0.360072
   3 C :    0.451039
   4 O :   -0.384869
   5 C :   -0.241198
   6 C :    0.160380
   7 C :   -0.298478
   8 N :   -0.127174
   9 C :    0.201288
  10 S :   -0.437659
  11 N :   -0.201708
  12 C :    0.060389
  13 C :    0.021205
  14 C :   -0.162587
  15 C :   -0.132001
  16 C :   -0.275323
  17 C :    0.311677
  18 O :   -0.360807
  19 C :   -0.273650
  20 H :    0.109448
  21 H :    0.111292
  22 H :    0.093281
  23 H :    0.122186
  24 H :    0.092379
  25 H :    0.138549
  26 H :    0.115445
  27 H :    0.120686
  28 H :    0.197539
  29 H :    0.195057
  30 H :    0.157458
  31 H :    0.159332
  32 H :    0.162145
  33 H :    0.131904
  34 H :    0.241861
  35 H :    0.172588
Sum of atomic charges:   -0.0000000

LOEWDIN ATOMIC CHARGES
----------------------
   0 C :    0.110424
   1 C :   -0.024600
   2 O :    0.290482
   3 C :   -0.419200
   4 O :    0.130214
   5 C :   -0.093471
   6 C :   -0.079098
   7 C :    0.128018
   8 N :    0.404084
   9 C :   -0.457968
  10 S :   -0.034466
  11 N :    0.397416
  12 C :   -0.046158
  13 C :   -0.043950
  14 C :    0.021700
  15 C :    0.043571
  16 C :   -0.000230
  17 C :   -0.193041
  18 O :    0.394181
  19 C :    0.028023
  20 H :   -0.025042
  21 H :   -0.023051
  22 H :   -0.026990
  23 H :   -0.023589
  24 H :   -0.040197
  25 H :   -0.005835
  26 H :   -0.016279
  27 H :   -0.013866
  28 H :   -0.057950
  29 H :   -0.063452
  30 H :   -0.003818
  31 H :   -0.023387
  32 H :   -0.019295
  33 H :   -0.034878
  34 H :   -0.153076
  35 H :   -0.025224

  Mayer bond orders larger than 0.100000
B(  0-C ,  1-C ) :   0.9821 B(  0-C , 20-H ) :   0.9670 B(  0-C , 21-H ) :   0.9781
B(  0-C , 22-H ) :   0.9758 B(  1-C ,  2-O ) :   0.8961 B(  1-C , 23-H ) :   0.9788
B(  1-C , 24-H ) :   0.9652 B(  2-O ,  3-C ) :   1.1221 B(  3-C ,  4-O ) :   2.0730
B(  3-C ,  5-C ) :   0.9697 B(  5-C ,  6-C ) :   1.6646 B(  5-C , 12-C ) :   0.9652
B(  6-C ,  7-C ) :   0.9471 B(  6-C ,  8-N ) :   1.1392 B(  7-C , 25-H ) :   0.9692
B(  7-C , 26-H ) :   0.9850 B(  7-C , 27-H ) :   0.9642 B(  8-N ,  9-C ) :   1.1839
B(  8-N , 28-H ) :   0.9497 B(  9-C , 10-S ) :   1.6132 B(  9-C , 11-N ) :   1.2987
B( 11-N , 12-C ) :   0.9961 B( 11-N , 29-H ) :   0.9516 B( 12-C , 13-C ) :   0.9416
B( 12-C , 30-H ) :   0.9978 B( 13-C , 14-C ) :   1.3836 B( 13-C , 19-C ) :   1.3609
B( 14-C , 15-C ) :   1.3919 B( 14-C , 31-H ) :   0.9634 B( 15-C , 16-C ) :   1.3635
B( 15-C , 32-H ) :   0.9712 B( 16-C , 17-C ) :   1.3312 B( 16-C , 33-H ) :   0.9846
B( 17-C , 18-O ) :   1.1091 B( 17-C , 19-C ) :   1.3712 B( 18-O , 34-H ) :   0.9792
B( 19-C , 35-H ) :   0.9576

MP2 TOTAL ENERGY:    -1274.334658286 Eh
FINAL SINGLE POINT ENERGY     -1274.334658285939

DIPOLE MOMENT
-------------
                                X             Y             Z
Electronic contribution:      9.95796       8.54928       5.50519
Nuclear contribution   :    -11.42339      -9.44033      -5.84914
                        -----------------------------------------
Total Dipole Moment    :     -1.46543      -0.89105      -0.34395
                        -----------------------------------------
Magnitude (a.u.)       :      1.74921
Magnitude (Debye)      :      4.44615

Rotational constants in cm-1:     0.012348     0.009328     0.006831
Rotational constants in MHz :   370.182862   279.635730   204.785026

                             ****ORCA TERMINATED NORMALLY****
TOTAL RUN TIME: 0 days 1 hours 54 minutes 16 seconds 265 msec
