                         Program Version 4.2.0 -  RELEASE  -
|  1> ! ri-mp2 cc-pvtz cc-pvtz/c TightSCF  NoKeepInts
|  2>
|  3> %scf
|  4>   MaxCore 4096
|  5> end
|  6> *xyz  0  1
|  7>     C       14.6861511   15.1561353   16.2810408
|  8>     C       15.8523175   14.8034743   17.2215095
|  9>     O       17.0758430   14.8819924   16.4616811
| 10>     C       17.7220022   16.0654892   16.2278056
| 11>     O       17.9999250   16.3894020   15.0882327
| 12>     C       17.7898519   17.0316259   17.3721555
| 13>     C       17.3901361   18.3165455   17.2230926
| 14>     C       16.6912365   18.9090819   16.0193314
| 15>     N       17.6533428   19.2539306   18.2244266
| 16>     C       18.4694458   19.0299574   19.3014103
| 17>     S       18.8322329   20.2236597   20.3865287
| 18>     N       18.9766443   17.7611957   19.4346667
| 19>     C       18.5867462   16.5956597   18.6162997
| 20>     C       17.9045712   15.5498724   19.4926555
| 21>     C       18.2857319   14.1975172   19.4053118
| 22>     C       17.6606396   13.2246154   20.2029506
| 23>     C       16.6495107   13.6060664   21.1009423
| 24>     C       16.2723209   14.9520760   21.1980973
| 25>     O       15.2927418   15.3230120   22.0597603
| 26>     C       16.8942619   15.9186378   20.4013779
| 27>     H       14.7615614   16.1908226   15.9285376
| 28>     H       13.7266934   15.0413162   16.7998912
| 29>     H       14.6836800   14.4937069   15.4060840
| 30>     H       15.8341802   15.4864247   18.0744155
| 31>     H       15.7189976   13.7799047   17.5952172
| 32>     H       15.9807261   18.1994023   15.5804635
| 33>     H       17.4234589   19.1547592   15.2390202
| 34>     H       16.1342277   19.8213751   16.2634254
| 35>     H       17.3136262   20.1976490   18.1261640
| 36>     H       19.5617313   17.6251121   20.2496061
| 37>     H       19.5190120   16.1453401   18.2461302
| 38>     H       19.0623237   13.8958968   18.7064842
| 39>     H       17.9605758   12.1807458   20.1233488
| 40>     H       16.1642578   12.8573842   21.7189303
| 41>     H       15.0317400   14.5372753   22.5638481
| 42>     H       16.5845547   16.9549380   20.4931568
| 43> *
| 44>
| 45>                          ****END OF INPUT****

CARTESIAN COORDINATES (ANGSTROEM)
---------------------------------
  C     14.686151   15.156135   16.281041
  C     15.852317   14.803474   17.221509
  O     17.075843   14.881992   16.461681
  C     17.722002   16.065489   16.227806
  O     17.999925   16.389402   15.088233
  C     17.789852   17.031626   17.372155
  C     17.390136   18.316545   17.223093
  C     16.691236   18.909082   16.019331
  N     17.653343   19.253931   18.224427
  C     18.469446   19.029957   19.301410
  S     18.832233   20.223660   20.386529
  N     18.976644   17.761196   19.434667
  C     18.586746   16.595660   18.616300
  C     17.904571   15.549872   19.492656
  C     18.285732   14.197517   19.405312
  C     17.660640   13.224615   20.202951
  C     16.649511   13.606066   21.100942
  C     16.272321   14.952076   21.198097
  O     15.292742   15.323012   22.059760
  C     16.894262   15.918638   20.401378
  H     14.761561   16.190823   15.928538
  H     13.726693   15.041316   16.799891
  H     14.683680   14.493707   15.406084
  H     15.834180   15.486425   18.074415
  H     15.718998   13.779905   17.595217
  H     15.980726   18.199402   15.580464
  H     17.423459   19.154759   15.239020
  H     16.134228   19.821375   16.263425
  H     17.313626   20.197649   18.126164
  H     19.561731   17.625112   20.249606
  H     19.519012   16.145340   18.246130
  H     19.062324   13.895897   18.706484
  H     17.960576   12.180746   20.123349
  H     16.164258   12.857384   21.718930
  H     15.031740   14.537275   22.563848
  H     16.584555   16.954938   20.493157

 Total Charge           Charge          ....    0
 Multiplicity           Mult            ....    1
 Number of Electrons    NEL             ....  154
 Basis Dimension        Dim             ....  828

ORBITAL ENERGIES
----------------

  NO   OCC          E(Eh)            E(eV)
   0   2.0000     -91.891181     -2500.4862
   1   2.0000     -20.603549      -560.6511
   2   2.0000     -20.590987      -560.3092
   3   2.0000     -20.552379      -559.2587
   4   2.0000     -15.628362      -425.2694
   5   2.0000     -15.612278      -424.8317
   6   2.0000     -11.395294      -310.0817
   7   2.0000     -11.386774      -309.8499
   8   2.0000     -11.331953      -308.3581
   9   2.0000     -11.321780      -308.0813
  10   2.0000     -11.319248      -308.0124
  11   2.0000     -11.298144      -307.4381
  12   2.0000     -11.268067      -306.6197
  13   2.0000     -11.262903      -306.4792
  14   2.0000     -11.261144      -306.4313
  15   2.0000     -11.257015      -306.3190
  16   2.0000     -11.251306      -306.1636
  17   2.0000     -11.245941      -306.0176
  18   2.0000     -11.245876      -306.0158
  19   2.0000     -11.229052      -305.5580
  20   2.0000      -8.896252      -242.0793
  21   2.0000      -6.577830      -178.9918
  22   2.0000      -6.575818      -178.9371
  23   2.0000      -6.575232      -178.9212
  24   2.0000      -1.446493       -39.3611
  25   2.0000      -1.423347       -38.7312
  26   2.0000      -1.357431       -36.9376
  27   2.0000      -1.341333       -36.4995
  28   2.0000      -1.241507       -33.7831
  29   2.0000      -1.164791       -31.6956
  30   2.0000      -1.123898       -30.5828
  31   2.0000      -1.049791       -28.5663
  32   2.0000      -1.034842       -28.1595
  33   2.0000      -1.023299       -27.8454
  34   2.0000      -1.002761       -27.2865
  35   2.0000      -0.989023       -26.9127
  36   2.0000      -0.928463       -25.2648
  37   2.0000      -0.888065       -24.1655
  38   2.0000      -0.852396       -23.1949
  39   2.0000      -0.844251       -22.9732
  40   2.0000      -0.842105       -22.9148
  41   2.0000      -0.834809       -22.7163
  42   2.0000      -0.755418       -20.5560
  43   2.0000      -0.737416       -20.0661
  44   2.0000      -0.722494       -19.6601
  45   2.0000      -0.702358       -19.1121
  46   2.0000      -0.693018       -18.8580
  47   2.0000      -0.681161       -18.5353
  48   2.0000      -0.674374       -18.3507
  49   2.0000      -0.668547       -18.1921
  50   2.0000      -0.653588       -17.7850
  51   2.0000      -0.647754       -17.6263
  52   2.0000      -0.637092       -17.3362
  53   2.0000      -0.613502       -16.6942
  54   2.0000      -0.611015       -16.6266
  55   2.0000      -0.605582       -16.4787
  56   2.0000      -0.603052       -16.4099
  57   2.0000      -0.583253       -15.8711
  58   2.0000      -0.578160       -15.7325
  59   2.0000      -0.568883       -15.4801
  60   2.0000      -0.557646       -15.1743
  61   2.0000      -0.555463       -15.1149
  62   2.0000      -0.546092       -14.8599
  63   2.0000      -0.530526       -14.4363
  64   2.0000      -0.525090       -14.2884
  65   2.0000      -0.518295       -14.1035
  66   2.0000      -0.506485       -13.7822
  67   2.0000      -0.502061       -13.6618
  68   2.0000      -0.483490       -13.1564
  69   2.0000      -0.468735       -12.7549
  70   2.0000      -0.454326       -12.3628
  71   2.0000      -0.448087       -12.1931
  72   2.0000      -0.358559        -9.7569
  73   2.0000      -0.353324        -9.6144
  74   2.0000      -0.331248        -9.0137
  75   2.0000      -0.329207        -8.9582
  76   2.0000      -0.319904        -8.7050
  77   0.0000       0.080392         2.1876
  78   0.0000       0.098178         2.6716
  79   0.0000       0.118756         3.2315
  80   0.0000       0.126900         3.4531
  81   0.0000       0.129100         3.5130

MULLIKEN ATOMIC CHARGES
-----------------------
   0 C :   -0.271581
   1 C :    0.022650
   2 O :   -0.338006
   3 C :    0.391730
   4 O :   -0.367653
   5 C :   -0.220820
   6 C :    0.158909
   7 C :   -0.283006
   8 N :   -0.127258
   9 C :    0.202075
  10 S :   -0.436454
  11 N :   -0.209116
  12 C :    0.045798
  13 C :    0.013777
  14 C :   -0.158156
  15 C :   -0.152689
  16 C :   -0.268776
  17 C :    0.305231
  18 O :   -0.353394
  19 C :   -0.250361
  20 H :    0.082595
  21 H :    0.096310
  22 H :    0.110573
  23 H :    0.103364
  24 H :    0.122138
  25 H :    0.119810
  26 H :    0.143415
  27 H :    0.096901
  28 H :    0.197572
  29 H :    0.196625
  30 H :    0.159152
  31 H :    0.147548
  32 H :    0.165273
  33 H :    0.135390
  34 H :    0.241537
  35 H :    0.178895
Sum of atomic charges:   -0.0000000

LOEWDIN ATOMIC CHARGES
----------------------
   0 C :    0.106734
   1 C :   -0.021308
   2 O :    0.299244
   3 C :   -0.422120
   4 O :    0.131441
   5 C :   -0.091671
   6 C :   -0.080053
   7 C :    0.130300
   8 N :    0.404765
   9 C :   -0.457442
  10 S :   -0.034194
  11 N :    0.396549
  12 C :   -0.051355
  13 C :   -0.044097
  14 C :    0.019230
  15 C :    0.043846
  16 C :    0.000080
  17 C :   -0.192317
  18 O :    0.397267
  19 C :    0.030081
  20 H :   -0.033337
  21 H :   -0.026015
  22 H :   -0.022695
  23 H :   -0.040553
  24 H :   -0.021518
  25 H :   -0.012431
  26 H :   -0.002937
  27 H :   -0.020917
  28 H :   -0.057674
  29 H :   -0.064149
  30 H :   -0.008030
  31 H :   -0.027521
  32 H :   -0.018699
  33 H :   -0.033793
  34 H :   -0.152348
  35 H :   -0.022360

  Mayer bond orders larger than 0.100000
B(  0-C ,  1-C ) :   0.9815 B(  0-C , 20-H ) :   0.9770 B(  0-C , 21-H ) :   0.9771
B(  0-C , 22-H ) :   0.9790 B(  1-C ,  2-O ) :   0.8801 B(  1-C , 23-H ) :   0.9564
B(  1-C , 24-H ) :   0.9786 B(  2-O ,  3-C ) :   1.1684 B(  3-C ,  4-O ) :   2.1156
B(  3-C ,  5-C ) :   0.9228 B(  5-C ,  6-C ) :   1.7023 B(  5-C , 12-C ) :   0.9573
B(  6-C ,  7-C ) :   0.9537 B(  6-C ,  8-N ) :   1.1290 B(  7-C , 25-H ) :   0.9740
B(  7-C , 26-H ) :   0.9576 B(  7-C , 27-H ) :   0.9843 B(  8-N ,  9-C ) :   1.1929
B(  8-N , 28-H ) :   0.9501 B(  9-C , 10-S ) :   1.6154 B(  9-C , 11-N ) :   1.2855
B( 11-N , 12-C ) :   0.9953 B( 11-N , 29-H ) :   0.9492 B( 12-C , 13-C ) :   0.9441
B( 12-C , 30-H ) :   1.0101 B( 13-C , 14-C ) :   1.3721 B( 13-C , 19-C ) :   1.3496
B( 14-C , 15-C ) :   1.3972 B( 14-C , 31-H ) :   0.9735 B( 15-C , 16-C ) :   1.3627
B( 15-C , 32-H ) :   0.9700 B( 16-C , 17-C ) :   1.3278 B( 16-C , 33-H ) :   0.9829
B( 17-C , 18-O ) :   1.1148 B( 17-C , 19-C ) :   1.3701 B( 18-O , 34-H ) :   0.9789
B( 19-C , 35-H ) :   0.9573

MP2 TOTAL ENERGY:    -1274.327386516 Eh
FINAL SINGLE POINT ENERGY     -1274.327386515590

DIPOLE MOMENT
-------------
                                X             Y             Z
Electronic contribution:     10.70480       7.04274       7.39194
Nuclear contribution   :    -12.00354      -8.64125      -7.09641
                        -----------------------------------------
Total Dipole Moment    :     -1.29875      -1.59851       0.29553
                        -----------------------------------------
Magnitude (a.u.)       :      2.08070
Magnitude (Debye)      :      5.28872

Rotational constants in cm-1:     0.011489     0.009616     0.006391
Rotational constants in MHz :   344.440735   288.266056   191.610020

                             ****ORCA TERMINATED NORMALLY****
TOTAL RUN TIME: 0 days 1 hours 46 minutes 17 seconds 80 msec
