                         Program Version 5.0.0 -  RELEASE  -
|  1> ! ri-mp2 cc-pvtz cc-pvtz/c TightSCF NoKeepInts
|  2>
|  3> %scf
|  4>   MaxCore 4096
|  5> end
|  6> *xyz  0  1
|  7>     C       14.8871001   14.1917688   16.3074791
|  8>     C       16.4045475   13.9004877   16.3187966
|  9>     O       17.2394904   15.0458768   16.6225744
| 10>     C       16.8660883   16.3611533   16.5209398
| 11>     O       16.0543342   16.7641674   15.7065681
| 12>     C       17.6377978   17.2461556   17.4615212
| 13>     C       17.5367889   18.5997434   17.4386896
| 14>     C       16.6866295   19.4413578   16.5109647
| 15>     N       18.2906028   19.3749450   18.3248666
| 16>     C       19.2166724   18.8841714   19.2056961
| 17>     S       20.1173636   19.8788475   20.1728582
| 18>     N       19.3607959   17.5211450   19.2466388
| 19>     C       18.5360459   16.5537349   18.5003004
| 20>     C       17.7263962   15.7048051   19.4764277
| 21>     C       18.0283943   14.3417547   19.6559568
| 22>     C       17.2784997   13.5545858   20.5459899
| 23>     C       16.2197722   14.1354540   21.2647703
| 24>     C       15.9200621   15.4938412   21.0926151
| 25>     O       14.8992869   16.0577815   21.7860505
| 26>     C       16.6680574   16.2746462   20.2061327
| 27>     H       14.5866722   14.7516909   17.2021407
| 28>     H       14.3232174   13.2514523   16.2936495
| 29>     H       14.5939591   14.7603250   15.4163864
| 30>     H       16.6120669   13.1140114   17.0557975
| 31>     H       16.6853988   13.5063446   15.3335561
| 32>     H       16.9454291   19.2418006   15.4632696
| 33>     H       16.8024714   20.5182045   16.6803967
| 34>     H       15.6237127   19.1984505   16.6367647
| 35>     H       18.1985342   20.3780794   18.3092272
| 36>     H       20.0225532   17.1875005   19.9355105
| 37>     H       19.2249111   15.8938214   17.9544215
| 38>     H       18.8437470   13.8895917   19.0976668
| 39>     H       17.5188420   12.5009903   20.6774219
| 40>     H       15.6379770   13.5320220   21.9537779
| 41>     H       14.5284427   15.3757930   22.3658849
| 42>     H       16.4243389   17.3254990   20.0922916
| 43> *
| 44>
| 45>                          ****END OF INPUT****

CARTESIAN COORDINATES (ANGSTROEM)
---------------------------------
  C     14.887100   14.191769   16.307479
  C     16.404547   13.900488   16.318797
  O     17.239490   15.045877   16.622574
  C     16.866088   16.361153   16.520940
  O     16.054334   16.764167   15.706568
  C     17.637798   17.246156   17.461521
  C     17.536789   18.599743   17.438690
  C     16.686629   19.441358   16.510965
  N     18.290603   19.374945   18.324867
  C     19.216672   18.884171   19.205696
  S     20.117364   19.878847   20.172858
  N     19.360796   17.521145   19.246639
  C     18.536046   16.553735   18.500300
  C     17.726396   15.704805   19.476428
  C     18.028394   14.341755   19.655957
  C     17.278500   13.554586   20.545990
  C     16.219772   14.135454   21.264770
  C     15.920062   15.493841   21.092615
  O     14.899287   16.057782   21.786051
  C     16.668057   16.274646   20.206133
  H     14.586672   14.751691   17.202141
  H     14.323217   13.251452   16.293650
  H     14.593959   14.760325   15.416386
  H     16.612067   13.114011   17.055798
  H     16.685399   13.506345   15.333556
  H     16.945429   19.241801   15.463270
  H     16.802471   20.518204   16.680397
  H     15.623713   19.198450   16.636765
  H     18.198534   20.378079   18.309227
  H     20.022553   17.187500   19.935510
  H     19.224911   15.893821   17.954421
  H     18.843747   13.889592   19.097667
  H     17.518842   12.500990   20.677422
  H     15.637977   13.532022   21.953778
  H     14.528443   15.375793   22.365885
  H     16.424339   17.325499   20.092292

 Total Charge           Charge          ....    0
 Multiplicity           Mult            ....    1
 Number of Electrons    NEL             ....  154
 Basis Dimension        Dim             ....  828

ORBITAL ENERGIES
----------------

  NO   OCC          E(Eh)            E(eV)
   0   2.0000     -91.888293     -2500.4076
   1   2.0000     -20.597763      -560.4936
   2   2.0000     -20.595421      -560.4299
   3   2.0000     -20.540656      -558.9397
   4   2.0000     -15.628278      -425.2671
   5   2.0000     -15.607726      -424.7078
   6   2.0000     -11.395887      -310.0979
   7   2.0000     -11.383439      -309.7591
   8   2.0000     -11.335115      -308.4442
   9   2.0000     -11.315078      -307.8989
  10   2.0000     -11.308097      -307.7090
  11   2.0000     -11.301412      -307.5270
  12   2.0000     -11.260747      -306.4205
  13   2.0000     -11.257900      -306.3430
  14   2.0000     -11.256636      -306.3086
  15   2.0000     -11.251431      -306.1670
  16   2.0000     -11.244249      -305.9716
  17   2.0000     -11.239436      -305.8406
  18   2.0000     -11.239341      -305.8380
  19   2.0000     -11.223464      -305.4060
  20   2.0000      -8.893366      -242.0008
  21   2.0000      -6.574944      -178.9133
  22   2.0000      -6.572936      -178.8587
  23   2.0000      -6.572352      -178.8428
  24   2.0000      -1.443393       -39.2767
  25   2.0000      -1.417425       -38.5701
  26   2.0000      -1.352735       -36.8098
  27   2.0000      -1.339362       -36.4459
  28   2.0000      -1.237993       -33.6875
  29   2.0000      -1.158519       -31.5249
  30   2.0000      -1.119705       -30.4687
  31   2.0000      -1.042965       -28.3805
  32   2.0000      -1.035068       -28.1656
  33   2.0000      -1.016271       -27.6542
  34   2.0000      -0.995299       -27.0835
  35   2.0000      -0.983642       -26.7662
  36   2.0000      -0.922363       -25.0988
  37   2.0000      -0.898045       -24.4370
  38   2.0000      -0.846948       -23.0466
  39   2.0000      -0.838500       -22.8167
  40   2.0000      -0.835117       -22.7247
  41   2.0000      -0.817549       -22.2466
  42   2.0000      -0.744599       -20.2616
  43   2.0000      -0.731678       -19.9100
  44   2.0000      -0.719912       -19.5898
  45   2.0000      -0.696528       -18.9535
  46   2.0000      -0.687821       -18.7166
  47   2.0000      -0.674900       -18.3650
  48   2.0000      -0.671253       -18.2657
  49   2.0000      -0.658667       -17.9232
  50   2.0000      -0.651829       -17.7372
  51   2.0000      -0.642683       -17.4883
  52   2.0000      -0.635692       -17.2981
  53   2.0000      -0.613421       -16.6920
  54   2.0000      -0.607756       -16.5379
  55   2.0000      -0.600878       -16.3507
  56   2.0000      -0.598833       -16.2951
  57   2.0000      -0.578103       -15.7310
  58   2.0000      -0.570566       -15.5259
  59   2.0000      -0.568310       -15.4645
  60   2.0000      -0.558500       -15.1976
  61   2.0000      -0.540604       -14.7106
  62   2.0000      -0.535316       -14.5667
  63   2.0000      -0.525920       -14.3110
  64   2.0000      -0.520638       -14.1673
  65   2.0000      -0.513518       -13.9735
  66   2.0000      -0.501478       -13.6459
  67   2.0000      -0.498837       -13.5741
  68   2.0000      -0.486545       -13.2396
  69   2.0000      -0.463352       -12.6085
  70   2.0000      -0.453352       -12.3363
  71   2.0000      -0.441103       -12.0030
  72   2.0000      -0.353284        -9.6133
  73   2.0000      -0.350264        -9.5312
  74   2.0000      -0.327937        -8.9236
  75   2.0000      -0.322597        -8.7783
  76   2.0000      -0.315770        -8.5925
  77   0.0000       0.076872         2.0918
  78   0.0000       0.104296         2.8380
  79   0.0000       0.124734         3.3942
  80   0.0000       0.132474         3.6048
  81   0.0000       0.138159         3.7595

MULLIKEN ATOMIC CHARGES
-----------------------
   0 C :   -0.306575
   1 C :    0.046892
   2 O :   -0.367171
   3 C :    0.462959
   4 O :   -0.426908
   5 C :   -0.230620
   6 C :    0.156449
   7 C :   -0.271795
   8 N :   -0.121014
   9 C :    0.212927
  10 S :   -0.441663
  11 N :   -0.207306
  12 C :    0.070163
  13 C :    0.061501
  14 C :   -0.198111
  15 C :   -0.127376
  16 C :   -0.280461
  17 C :    0.318301
  18 O :   -0.356463
  19 C :   -0.272650
  20 H :    0.102342
  21 H :    0.096806
  22 H :    0.125025
  23 H :    0.099162
  24 H :    0.103391
  25 H :    0.131718
  26 H :    0.094940
  27 H :    0.130562
  28 H :    0.196905
  29 H :    0.195422
  30 H :    0.149546
  31 H :    0.153408
  32 H :    0.162067
  33 H :    0.130671
  34 H :    0.240930
  35 H :    0.166025
Sum of atomic charges:    0.0000000

LOEWDIN ATOMIC CHARGES
----------------------
   0 C :    0.104420
   1 C :   -0.009602
   2 O :    0.296364
   3 C :   -0.414911
   4 O :    0.105001
   5 C :   -0.094715
   6 C :   -0.059445
   7 C :    0.131144
   8 N :    0.406464
   9 C :   -0.456120
  10 S :   -0.036678
  11 N :    0.396321
  12 C :   -0.052332
  13 C :   -0.038344
  14 C :    0.015008
  15 C :    0.038571
  16 C :   -0.002040
  17 C :   -0.189834
  18 O :    0.395507
  19 C :    0.030902
  20 H :   -0.026723
  21 H :   -0.027077
  22 H :   -0.024921
  23 H :   -0.027899
  24 H :   -0.028681
  25 H :   -0.003870
  26 H :   -0.023610
  27 H :   -0.005015
  28 H :   -0.057709
  29 H :   -0.064722
  30 H :   -0.011495
  31 H :   -0.029902
  32 H :   -0.021308
  33 H :   -0.035454
  34 H :   -0.153707
  35 H :   -0.023588

  Mayer bond orders larger than 0.100000
B(  0-C ,  1-C ) :   0.9665 B(  0-C , 20-H ) :   0.9749 B(  0-C , 21-H ) :   0.9753
B(  0-C , 22-H ) :   0.9721 B(  1-C ,  2-O ) :   0.8970 B(  1-C , 23-H ) :   0.9781
B(  1-C , 24-H ) :   0.9831 B(  2-O ,  3-C ) :   1.1542 B(  3-C ,  4-O ) :   1.9832
B(  3-C ,  5-C ) :   1.0481 B(  5-C ,  6-C ) :   1.6530 B(  5-C , 12-C ) :   0.9711
B(  6-C ,  7-C ) :   0.9665 B(  6-C ,  8-N ) :   1.1633 B(  7-C , 25-H ) :   0.9602
B(  7-C , 26-H ) :   0.9905 B(  7-C , 27-H ) :   0.9606 B(  8-N ,  9-C ) :   1.1848
B(  8-N , 28-H ) :   0.9479 B(  9-C , 10-S ) :   1.6048 B(  9-C , 11-N ) :   1.3067
B( 11-N , 12-C ) :   0.9858 B( 11-N , 29-H ) :   0.9513 B( 12-C , 13-C ) :   0.9352
B( 12-C , 30-H ) :   1.0023 B( 13-C , 14-C ) :   1.3531 B( 13-C , 19-C ) :   1.3809
B( 14-C , 15-C ) :   1.3876 B( 14-C , 31-H ) :   0.9711 B( 15-C , 16-C ) :   1.3641
B( 15-C , 32-H ) :   0.9702 B( 16-C , 17-C ) :   1.3313 B( 16-C , 33-H ) :   0.9847
B( 17-C , 18-O ) :   1.1102 B( 17-C , 19-C ) :   1.3688 B( 18-O , 34-H ) :   0.9796
B( 19-C , 35-H ) :   0.9586

MP2 TOTAL ENERGY:    -1274.341181250 Eh
FINAL SINGLE POINT ENERGY     -1274.341181249682

DIPOLE MOMENT
-------------
                                X             Y             Z
Electronic contribution:     10.33302       9.93117       7.64297
Nuclear contribution   :    -11.38023     -11.72001      -7.93009
                        -----------------------------------------
Total Dipole Moment    :     -1.04720      -1.78884      -0.28712
                        -----------------------------------------
Magnitude (a.u.)       :      2.09261
Magnitude (Debye)      :      5.31900

Rotational constants in cm-1:     0.012154     0.008651     0.006251
Rotational constants in MHz :   364.369247   259.352812   187.385622

                             ****ORCA TERMINATED NORMALLY****
TOTAL RUN TIME: 0 days 2 hours 0 minutes 23 seconds 919 msec
