                         Program Version 4.2.0 -  RELEASE  -
|  1> ! ri-mp2 cc-pvtz cc-pvtz/c TightSCF  NoKeepInts
|  2>
|  3> %scf
|  4>   MaxCore 4096
|  5> end
|  6> *xyz  0  1
|  7>     C       15.0785353   15.7178314   17.3150894
|  8>     C       15.5840057   15.1804162   15.9596376
|  9>     O       17.0134361   15.2380075   15.6934861
| 10>     C       18.0729247   15.6528176   16.4684230
| 11>     O       19.0811281   14.9713982   16.5032290
| 12>     C       17.8981903   16.8014482   17.4117475
| 13>     C       17.3441530   17.9758384   17.0224201
| 14>     C       16.8089146   18.3258206   15.6478539
| 15>     N       17.3270780   19.0633060   17.8990976
| 16>     C       18.0014986   19.1134638   19.0905369
| 17>     S       18.0171053   20.4784010   20.0237572
| 18>     N       18.6685153   17.9744484   19.4674727
| 19>     C       18.5873169   16.6721354   18.7757335
| 20>     C       17.9178836   15.6169825   19.6538530
| 21>     C       18.3814283   14.2884529   19.6314422
| 22>     C       17.7718969   13.3013336   20.4233561
| 23>     C       16.6873600   13.6432591   21.2483252
| 24>     C       16.2206284   14.9640617   21.2748331
| 25>     O       15.1669792   15.2955559   22.0625501
| 26>     C       16.8290201   15.9451062   20.4852498
| 27>     H       15.6462734   15.2795684   18.1413289
| 28>     H       14.0332958   15.4167864   17.4565678
| 29>     H       15.0973924   16.8075121   17.3856474
| 30>     H       15.2850145   14.1259409   15.8943742
| 31>     H       15.0525666   15.7019882   15.1533447
| 32>     H       15.7207031   18.2070849   15.5975713
| 33>     H       17.2547305   17.7006028   14.8645267
| 34>     H       17.0433053   19.3641872   15.3811809
| 35>     H       16.8605567   19.9154404   17.6308796
| 36>     H       19.1480806   18.0353451   20.3567900
| 37>     H       19.6191806   16.3378277   18.5916205
| 38>     H       19.2151593   14.0170483   18.9869904
| 39>     H       18.1399155   12.2771512   20.3921308
| 40>     H       16.2126959   12.8832144   21.8600862
| 41>     H       14.9176061   14.5039169   22.5628460
| 42>     H       16.4425253   16.9583005   20.5200208
| 43> *
| 44>
| 45>                          ****END OF INPUT****

CARTESIAN COORDINATES (ANGSTROEM)
---------------------------------
  C     15.078535   15.717831   17.315089
  C     15.584006   15.180416   15.959638
  O     17.013436   15.238008   15.693486
  C     18.072925   15.652818   16.468423
  O     19.081128   14.971398   16.503229
  C     17.898190   16.801448   17.411748
  C     17.344153   17.975838   17.022420
  C     16.808915   18.325821   15.647854
  N     17.327078   19.063306   17.899098
  C     18.001499   19.113464   19.090537
  S     18.017105   20.478401   20.023757
  N     18.668515   17.974448   19.467473
  C     18.587317   16.672135   18.775734
  C     17.917884   15.616983   19.653853
  C     18.381428   14.288453   19.631442
  C     17.771897   13.301334   20.423356
  C     16.687360   13.643259   21.248325
  C     16.220628   14.964062   21.274833
  O     15.166979   15.295556   22.062550
  C     16.829020   15.945106   20.485250
  H     15.646273   15.279568   18.141329
  H     14.033296   15.416786   17.456568
  H     15.097392   16.807512   17.385647
  H     15.285015   14.125941   15.894374
  H     15.052567   15.701988   15.153345
  H     15.720703   18.207085   15.597571
  H     17.254730   17.700603   14.864527
  H     17.043305   19.364187   15.381181
  H     16.860557   19.915440   17.630880
  H     19.148081   18.035345   20.356790
  H     19.619181   16.337828   18.591621
  H     19.215159   14.017048   18.986990
  H     18.139916   12.277151   20.392131
  H     16.212696   12.883214   21.860086
  H     14.917606   14.503917   22.562846
  H     16.442525   16.958300   20.520021

 Total Charge           Charge          ....    0
 Multiplicity           Mult            ....    1
 Number of Electrons    NEL             ....  154
 Basis Dimension        Dim             ....  828

ORBITAL ENERGIES
----------------

  NO   OCC          E(Eh)            E(eV)
   0   2.0000     -91.890942     -2500.4797
   1   2.0000     -20.597771      -560.4938
   2   2.0000     -20.593536      -560.3786
   3   2.0000     -20.547034      -559.1132
   4   2.0000     -15.629634      -425.3040
   5   2.0000     -15.610771      -424.7907
   6   2.0000     -11.399193      -310.1878
   7   2.0000     -11.386925      -309.8540
   8   2.0000     -11.333732      -308.4065
   9   2.0000     -11.314539      -307.8843
  10   2.0000     -11.313326      -307.8513
  11   2.0000     -11.312151      -307.8193
  12   2.0000     -11.267234      -306.5970
  13   2.0000     -11.264144      -306.5129
  14   2.0000     -11.261661      -306.4454
  15   2.0000     -11.254869      -306.2606
  16   2.0000     -11.243979      -305.9642
  17   2.0000     -11.239648      -305.8464
  18   2.0000     -11.236319      -305.7558
  19   2.0000     -11.236194      -305.7524
  20   2.0000      -8.896027      -242.0732
  21   2.0000      -6.577610      -178.9859
  22   2.0000      -6.575591      -178.9309
  23   2.0000      -6.575010      -178.9151
  24   2.0000      -1.440719       -39.2040
  25   2.0000      -1.417588       -38.5745
  26   2.0000      -1.353243       -36.8236
  27   2.0000      -1.341805       -36.5124
  28   2.0000      -1.240341       -33.7514
  29   2.0000      -1.158798       -31.5325
  30   2.0000      -1.124353       -30.5952
  31   2.0000      -1.046873       -28.4869
  32   2.0000      -1.041469       -28.3398
  33   2.0000      -1.017058       -27.6756
  34   2.0000      -1.004595       -27.3364
  35   2.0000      -0.990250       -26.9461
  36   2.0000      -0.927642       -25.2424
  37   2.0000      -0.901639       -24.5348
  38   2.0000      -0.853674       -23.2297
  39   2.0000      -0.840909       -22.8823
  40   2.0000      -0.834451       -22.7066
  41   2.0000      -0.826396       -22.4874
  42   2.0000      -0.745251       -20.2793
  43   2.0000      -0.732485       -19.9319
  44   2.0000      -0.730118       -19.8675
  45   2.0000      -0.694952       -18.9106
  46   2.0000      -0.686716       -18.6865
  47   2.0000      -0.678031       -18.4502
  48   2.0000      -0.674289       -18.3483
  49   2.0000      -0.662104       -18.0168
  50   2.0000      -0.656924       -17.8758
  51   2.0000      -0.652034       -17.7428
  52   2.0000      -0.642493       -17.4831
  53   2.0000      -0.616666       -16.7803
  54   2.0000      -0.606046       -16.4914
  55   2.0000      -0.604529       -16.4501
  56   2.0000      -0.602087       -16.3836
  57   2.0000      -0.590263       -16.0619
  58   2.0000      -0.575871       -15.6703
  59   2.0000      -0.570251       -15.5173
  60   2.0000      -0.564965       -15.3735
  61   2.0000      -0.556713       -15.1489
  62   2.0000      -0.544319       -14.8117
  63   2.0000      -0.531751       -14.4697
  64   2.0000      -0.522186       -14.2094
  65   2.0000      -0.513891       -13.9837
  66   2.0000      -0.501168       -13.6375
  67   2.0000      -0.492079       -13.3902
  68   2.0000      -0.483414       -13.1544
  69   2.0000      -0.469806       -12.7841
  70   2.0000      -0.456930       -12.4337
  71   2.0000      -0.447469       -12.1762
  72   2.0000      -0.356456        -9.6996
  73   2.0000      -0.348797        -9.4913
  74   2.0000      -0.330384        -8.9902
  75   2.0000      -0.323004        -8.7894
  76   2.0000      -0.319066        -8.6822
  77   0.0000       0.079089         2.1521
  78   0.0000       0.107399         2.9225
  79   0.0000       0.115575         3.1450
  80   0.0000       0.129131         3.5138
  81   0.0000       0.131205         3.5703

MULLIKEN ATOMIC CHARGES
-----------------------
   0 C :   -0.351672
   1 C :    0.047108
   2 O :   -0.348429
   3 C :    0.435875
   4 O :   -0.385027
   5 C :   -0.216823
   6 C :    0.143133
   7 C :   -0.321067
   8 N :   -0.138048
   9 C :    0.199610
  10 S :   -0.438407
  11 N :   -0.222019
  12 C :    0.088476
  13 C :    0.015251
  14 C :   -0.208800
  15 C :   -0.136661
  16 C :   -0.276185
  17 C :    0.319442
  18 O :   -0.357550
  19 C :   -0.271869
  20 H :    0.133791
  21 H :    0.126001
  22 H :    0.105110
  23 H :    0.123577
  24 H :    0.095371
  25 H :    0.117578
  26 H :    0.140167
  27 H :    0.127220
  28 H :    0.197890
  29 H :    0.201017
  30 H :    0.165532
  31 H :    0.177379
  32 H :    0.163907
  33 H :    0.132012
  34 H :    0.241017
  35 H :    0.176094
Sum of atomic charges:   -0.0000000

LOEWDIN ATOMIC CHARGES
----------------------
   0 C :    0.105351
   1 C :   -0.013320
   2 O :    0.285387
   3 C :   -0.417098
   4 O :    0.121097
   5 C :   -0.085401
   6 C :   -0.087630
   7 C :    0.128031
   8 N :    0.403735
   9 C :   -0.458152
  10 S :   -0.035869
  11 N :    0.397950
  12 C :   -0.043125
  13 C :   -0.043979
  14 C :    0.019076
  15 C :    0.043325
  16 C :   -0.001730
  17 C :   -0.194068
  18 O :    0.395194
  19 C :    0.027123
  20 H :   -0.024173
  21 H :   -0.019619
  22 H :   -0.036068
  23 H :   -0.020132
  24 H :   -0.030585
  25 H :   -0.018381
  26 H :   -0.006291
  27 H :   -0.012588
  28 H :   -0.057915
  29 H :   -0.063517
  30 H :   -0.002291
  31 H :   -0.021925
  32 H :   -0.018771
  33 H :   -0.035102
  34 H :   -0.153615
  35 H :   -0.024924

  Mayer bond orders larger than 0.100000
B(  0-C ,  1-C ) :   0.9628 B(  0-C , 20-H ) :   0.9627 B(  0-C , 21-H ) :   0.9775
B(  0-C , 22-H ) :   0.9722 B(  1-C ,  2-O ) :   0.8993 B(  1-C , 23-H ) :   0.9791
B(  1-C , 24-H ) :   0.9785 B(  2-O ,  3-C ) :   1.1588 B(  3-C ,  4-O ) :   2.0701
B(  3-C ,  5-C ) :   0.9479 B(  5-C ,  6-C ) :   1.6906 B(  5-C , 12-C ) :   0.9491
B(  6-C ,  7-C ) :   0.9443 B(  6-C ,  8-N ) :   1.1067 B(  7-C , 25-H ) :   0.9639
B(  7-C , 26-H ) :   0.9723 B(  7-C , 27-H ) :   0.9812 B(  8-N ,  9-C ) :   1.1911
B(  8-N , 28-H ) :   0.9507 B(  9-C , 10-S ) :   1.6111 B(  9-C , 11-N ) :   1.2911
B( 11-N , 12-C ) :   0.9860 B( 11-N , 29-H ) :   0.9489 B( 12-C , 13-C ) :   0.9494
B( 12-C , 30-H ) :   0.9950 B( 13-C , 14-C ) :   1.3914 B( 13-C , 19-C ) :   1.3438
B( 14-C , 15-C ) :   1.3994 B( 14-C , 31-H ) :   0.9567 B( 15-C , 16-C ) :   1.3605
B( 15-C , 32-H ) :   0.9702 B( 16-C , 17-C ) :   1.3305 B( 16-C , 33-H ) :   0.9846
B( 17-C , 18-O ) :   1.1104 B( 17-C , 19-C ) :   1.3678 B( 18-O , 34-H ) :   0.9796
B( 19-C , 35-H ) :   0.9585

MP2 TOTAL ENERGY:    -1274.325414866 Eh
FINAL SINGLE POINT ENERGY     -1274.325414865627

DIPOLE MOMENT
-------------
                                X             Y             Z
Electronic contribution:      9.32093       6.13982       6.74661
Nuclear contribution   :    -10.90528      -7.24737      -7.31665
                        -----------------------------------------
Total Dipole Moment    :     -1.58436      -1.10755      -0.57004
                        -----------------------------------------
Magnitude (a.u.)       :      2.01539
Magnitude (Debye)      :      5.12271

Rotational constants in cm-1:     0.011364     0.009706     0.006743
Rotational constants in MHz :   340.697576   290.980929   202.164313

                             ****ORCA TERMINATED NORMALLY****
TOTAL RUN TIME: 0 days 1 hours 48 minutes 49 seconds 88 msec
