                         Program Version 5.0.0 -  RELEASE  -
|  1> ! ri-mp2 cc-pvtz cc-pvtz/c TightSCF NoKeepInts
|  2>
|  3> %scf
|  4>   MaxCore 4096
|  5> end
|  6> *xyz  0  1
|  7>     C       16.1291425   13.0869354   15.9799815
|  8>     C       15.5647836   14.5002098   16.2009451
|  9>     O       16.6575703   15.3402836   16.6053560
| 10>     C       16.4963353   16.6968862   16.5817534
| 11>     O       15.5963160   17.2335350   15.9579162
| 12>     C       17.4329742   17.4090085   17.5183524
| 13>     C       17.4659630   18.7616203   17.6252803
| 14>     C       16.6165139   19.7614625   16.8701824
| 15>     N       18.3848401   19.3750501   18.4820716
| 16>     C       19.3664339   18.7203538   19.1770288
| 17>     S       20.4775086   19.5314039   20.0955159
| 18>     N       19.3842297   17.3531191   19.0699834
| 19>     C       18.3642552   16.5413240   18.3812018
| 20>     C       17.5885354   15.7139976   19.4025414
| 21>     C       17.7152032   14.3123540   19.4286244
| 22>     C       16.9984549   13.5467283   20.3635679
| 23>     C       16.1507534   14.1878280   21.2829796
| 24>     C       16.0262572   15.5838328   21.2632951
| 25>     O       15.2094377   16.2057254   22.1504629
| 26>     C       16.7401331   16.3429807   20.3309907
| 27>     H       16.5602495   12.6942372   16.9090893
| 28>     H       16.9110828   13.0984408   15.2105206
| 29>     H       15.3358610   12.4034514   15.6537429
| 30>     H       15.1259389   14.8602139   15.2601141
| 31>     H       14.7833991   14.4904177   16.9724370
| 32>     H       15.5540442   19.6184643   17.1056294
| 33>     H       16.7322089   19.6272893   15.7871655
| 34>     H       16.8703214   20.8023292   17.1025447
| 35>     H       18.3875832   20.3785327   18.5719607
| 36>     H       20.0962352   16.8958221   19.6247438
| 37>     H       18.8950769   15.8530153   17.7085003
| 38>     H       18.3658280   13.8141987   18.7149010
| 39>     H       17.1012061   12.4630783   20.3739903
| 40>     H       15.5955481   13.6011753   22.0074418
| 41>     H       14.8318513   15.5241868   22.7263983
| 42>     H       16.6349242   17.4225080   20.3367897
| 43> *
| 44>
| 45>                          ****END OF INPUT****

CARTESIAN COORDINATES (ANGSTROEM)
---------------------------------
  C     16.129143   13.086935   15.979981
  C     15.564784   14.500210   16.200945
  O     16.657570   15.340284   16.605356
  C     16.496335   16.696886   16.581753
  O     15.596316   17.233535   15.957916
  C     17.432974   17.409008   17.518352
  C     17.465963   18.761620   17.625280
  C     16.616514   19.761463   16.870182
  N     18.384840   19.375050   18.482072
  C     19.366434   18.720354   19.177029
  S     20.477509   19.531404   20.095516
  N     19.384230   17.353119   19.069983
  C     18.364255   16.541324   18.381202
  C     17.588535   15.713998   19.402541
  C     17.715203   14.312354   19.428624
  C     16.998455   13.546728   20.363568
  C     16.150753   14.187828   21.282980
  C     16.026257   15.583833   21.263295
  O     15.209438   16.205725   22.150463
  C     16.740133   16.342981   20.330991
  H     16.560250   12.694237   16.909089
  H     16.911083   13.098441   15.210521
  H     15.335861   12.403451   15.653743
  H     15.125939   14.860214   15.260114
  H     14.783399   14.490418   16.972437
  H     15.554044   19.618464   17.105629
  H     16.732209   19.627289   15.787166
  H     16.870321   20.802329   17.102545
  H     18.387583   20.378533   18.571961
  H     20.096235   16.895822   19.624744
  H     18.895077   15.853015   17.708500
  H     18.365828   13.814199   18.714901
  H     17.101206   12.463078   20.373990
  H     15.595548   13.601175   22.007442
  H     14.831851   15.524187   22.726398
  H     16.634924   17.422508   20.336790

 Total Charge           Charge          ....    0
 Multiplicity           Mult            ....    1
 Number of Electrons    NEL             ....  154
 Basis Dimension        Dim             ....  828

ORBITAL ENERGIES
----------------

  NO   OCC          E(Eh)            E(eV)
   0   2.0000     -91.888935     -2500.4250
   1   2.0000     -20.600658      -560.5724
   2   2.0000     -20.596526      -560.4600
   3   2.0000     -20.541913      -558.9739
   4   2.0000     -15.629080      -425.2889
   5   2.0000     -15.608349      -424.7248
   6   2.0000     -11.394105      -310.0494
   7   2.0000     -11.384059      -309.7760
   8   2.0000     -11.335853      -308.4642
   9   2.0000     -11.313753      -307.8629
  10   2.0000     -11.309200      -307.7390
  11   2.0000     -11.295344      -307.3619
  12   2.0000     -11.259680      -306.3915
  13   2.0000     -11.258767      -306.3666
  14   2.0000     -11.255313      -306.2726
  15   2.0000     -11.251949      -306.1811
  16   2.0000     -11.243092      -305.9401
  17   2.0000     -11.238497      -305.8150
  18   2.0000     -11.238211      -305.8073
  19   2.0000     -11.230640      -305.6013
  20   2.0000      -8.893994      -242.0179
  21   2.0000      -6.575568      -178.9303
  22   2.0000      -6.573564      -178.8758
  23   2.0000      -6.572977      -178.8598
  24   2.0000      -1.452199       -39.5164
  25   2.0000      -1.416182       -38.5363
  26   2.0000      -1.354692       -36.8630
  27   2.0000      -1.340054       -36.4647
  28   2.0000      -1.238556       -33.7028
  29   2.0000      -1.157662       -31.5016
  30   2.0000      -1.120434       -30.4886
  31   2.0000      -1.043364       -28.3914
  32   2.0000      -1.039832       -28.2953
  33   2.0000      -1.015230       -27.6258
  34   2.0000      -0.995788       -27.0968
  35   2.0000      -0.984446       -26.7881
  36   2.0000      -0.922574       -25.1045
  37   2.0000      -0.887931       -24.1618
  38   2.0000      -0.846746       -23.0411
  39   2.0000      -0.837473       -22.7888
  40   2.0000      -0.834014       -22.6947
  41   2.0000      -0.818142       -22.2628
  42   2.0000      -0.765099       -20.8194
  43   2.0000      -0.732423       -19.9302
  44   2.0000      -0.721524       -19.6337
  45   2.0000      -0.695708       -18.9312
  46   2.0000      -0.686119       -18.6703
  47   2.0000      -0.678933       -18.4747
  48   2.0000      -0.678021       -18.4499
  49   2.0000      -0.662438       -18.0259
  50   2.0000      -0.646232       -17.5849
  51   2.0000      -0.645140       -17.5552
  52   2.0000      -0.635961       -17.3054
  53   2.0000      -0.606972       -16.5165
  54   2.0000      -0.600946       -16.3526
  55   2.0000      -0.599299       -16.3077
  56   2.0000      -0.595804       -16.2127
  57   2.0000      -0.577738       -15.7210
  58   2.0000      -0.570730       -15.5303
  59   2.0000      -0.567367       -15.4388
  60   2.0000      -0.561428       -15.2772
  61   2.0000      -0.548332       -14.9209
  62   2.0000      -0.539928       -14.6922
  63   2.0000      -0.525201       -14.2914
  64   2.0000      -0.521162       -14.1815
  65   2.0000      -0.513411       -13.9706
  66   2.0000      -0.504641       -13.7320
  67   2.0000      -0.499217       -13.5844
  68   2.0000      -0.485490       -13.2108
  69   2.0000      -0.465773       -12.6743
  70   2.0000      -0.458514       -12.4768
  71   2.0000      -0.446617       -12.1531
  72   2.0000      -0.354287        -9.6406
  73   2.0000      -0.349476        -9.5097
  74   2.0000      -0.328281        -8.9330
  75   2.0000      -0.321271        -8.7422
  76   2.0000      -0.316095        -8.6014
  77   0.0000       0.075810         2.0629
  78   0.0000       0.105518         2.8713
  79   0.0000       0.125157         3.4057
  80   0.0000       0.132174         3.5966
  81   0.0000       0.136863         3.7242

MULLIKEN ATOMIC CHARGES
-----------------------
   0 C :   -0.269920
   1 C :    0.032046
   2 O :   -0.348209
   3 C :    0.455718
   4 O :   -0.429692
   5 C :   -0.223086
   6 C :    0.152723
   7 C :   -0.273006
   8 N :   -0.121820
   9 C :    0.211295
  10 S :   -0.439699
  11 N :   -0.203985
  12 C :    0.054580
  13 C :    0.064980
  14 C :   -0.191219
  15 C :   -0.128456
  16 C :   -0.279044
  17 C :    0.315882
  18 O :   -0.356441
  19 C :   -0.269844
  20 H :    0.091500
  21 H :    0.096803
  22 H :    0.095847
  23 H :    0.117270
  24 H :    0.094996
  25 H :    0.132609
  26 H :    0.130419
  27 H :    0.095039
  28 H :    0.197471
  29 H :    0.194625
  30 H :    0.150222
  31 H :    0.153853
  32 H :    0.160620
  33 H :    0.130127
  34 H :    0.240695
  35 H :    0.165103
Sum of atomic charges:   -0.0000000

LOEWDIN ATOMIC CHARGES
----------------------
   0 C :    0.106855
   1 C :   -0.016001
   2 O :    0.308472
   3 C :   -0.414185
   4 O :    0.097510
   5 C :   -0.095143
   6 C :   -0.059043
   7 C :    0.131607
   8 N :    0.406562
   9 C :   -0.456412
  10 S :   -0.035300
  11 N :    0.396420
  12 C :   -0.052402
  13 C :   -0.038498
  14 C :    0.014251
  15 C :    0.038379
  16 C :   -0.001780
  17 C :   -0.189522
  18 O :    0.395275
  19 C :    0.031603
  20 H :   -0.030734
  21 H :   -0.026630
  22 H :   -0.024371
  23 H :   -0.027228
  24 H :   -0.029048
  25 H :   -0.004389
  26 H :   -0.004024
  27 H :   -0.023400
  28 H :   -0.057551
  29 H :   -0.064600
  30 H :   -0.010773
  31 H :   -0.031087
  32 H :   -0.021657
  33 H :   -0.035578
  34 H :   -0.153929
  35 H :   -0.023649

  Mayer bond orders larger than 0.100000
B(  0-C ,  1-C ) :   0.9718 B(  0-C , 20-H ) :   0.9780 B(  0-C , 21-H ) :   0.9768
B(  0-C , 22-H ) :   0.9782 B(  1-C ,  2-O ) :   0.8925 B(  1-C , 23-H ) :   0.9801
B(  1-C , 24-H ) :   0.9732 B(  2-O ,  3-C ) :   1.1707 B(  3-C ,  4-O ) :   1.9806
B(  3-C ,  5-C ) :   1.0557 B(  5-C ,  6-C ) :   1.6573 B(  5-C , 12-C ) :   0.9727
B(  6-C ,  7-C ) :   0.9673 B(  6-C ,  8-N ) :   1.1632 B(  7-C , 25-H ) :   0.9597
B(  7-C , 26-H ) :   0.9608 B(  7-C , 27-H ) :   0.9904 B(  8-N ,  9-C ) :   1.1830
B(  8-N , 28-H ) :   0.9479 B(  9-C , 10-S ) :   1.6076 B(  9-C , 11-N ) :   1.3049
B( 11-N , 12-C ) :   0.9873 B( 11-N , 29-H ) :   0.9517 B( 12-C , 13-C ) :   0.9352
B( 12-C , 30-H ) :   1.0032 B( 13-C , 14-C ) :   1.3603 B( 13-C , 19-C ) :   1.3821
B( 14-C , 15-C ) :   1.3872 B( 14-C , 31-H ) :   0.9696 B( 15-C , 16-C ) :   1.3653
B( 15-C , 32-H ) :   0.9702 B( 16-C , 17-C ) :   1.3317 B( 16-C , 33-H ) :   0.9849
B( 17-C , 18-O ) :   1.1103 B( 17-C , 19-C ) :   1.3724 B( 18-O , 34-H ) :   0.9799
B( 19-C , 35-H ) :   0.9582

MP2 TOTAL ENERGY:    -1274.350054168 Eh
FINAL SINGLE POINT ENERGY     -1274.350054167803

DIPOLE MOMENT
-------------
                                X             Y             Z
Electronic contribution:      8.65667      11.23076       8.17856
Nuclear contribution   :     -9.81596     -12.82982      -8.56508
                        -----------------------------------------
Total Dipole Moment    :     -1.15929      -1.59906      -0.38651
                        -----------------------------------------
Magnitude (a.u.)       :      2.01255
Magnitude (Debye)      :      5.11549

Rotational constants in cm-1:     0.011802     0.008464     0.006190
Rotational constants in MHz :   353.805185   253.734160   185.576721

                             ****ORCA TERMINATED NORMALLY****
TOTAL RUN TIME: 0 days 1 hours 58 minutes 4 seconds 692 msec
