                         Program Version 4.2.0 -  RELEASE  -
|  1> ! ri-mp2 cc-pvtz cc-pvtz/c TightSCF  NoKeepInts
|  2>
|  3> %scf
|  4>   MaxCore 4096
|  5> end
|  6> *xyz  0  1
|  7>     C       14.2160836   14.9507793   15.2857641
|  8>     C       15.6931201   14.6035364   15.5366266
|  9>     O       16.3465091   15.8045210   15.9797075
| 10>     C       17.4667383   15.7014871   16.7511734
| 11>     O       18.0872862   14.6556460   16.8545841
| 12>     C       17.7519698   16.8993911   17.6127547
| 13>     C       17.1998153   18.1313528   17.4514866
| 14>     C       16.2061840   18.5828348   16.4003197
| 15>     N       17.5967569   19.1836403   18.2837225
| 16>     C       18.6312582   19.1278966   19.1798637
| 17>     S       19.1225401   20.4597000   20.0287354
| 18>     N       19.2385899   17.9081150   19.3355474
| 19>     C       18.7572047   16.6465267   18.7426040
| 20>     C       18.1583379   15.7454906   19.8197141
| 21>     C       18.6308909   14.4313669   19.9927629
| 22>     C       18.0821560   13.5966052   20.9806941
| 23>     C       17.0509248   14.0789642   21.8043884
| 24>     C       16.5746714   15.3858375   21.6331673
| 25>     O       15.5747785   15.8525998   22.4229507
| 26>     C       17.1225508   16.2141843   20.6487149
| 27>     H       13.7444809   15.3213183   16.2044914
| 28>     H       13.6646530   14.0638009   14.9507311
| 29>     H       14.1262878   15.7236950   14.5124237
| 30>     H       15.7449095   13.8257326   16.3114609
| 31>     H       16.1689534   14.2204569   14.6242752
| 32>     H       16.5598940   18.3257498   15.3940672
| 33>     H       16.0363565   19.6662077   16.4141396
| 34>     H       15.2346239   18.0960508   16.5519312
| 35>     H       17.1632872   20.0875881   18.1843262
| 36>     H       19.9777358   17.8850917   20.0262325
| 37>     H       19.6265628   16.1318581   18.3083712
| 38>     H       19.4165525   14.0500162   19.3450427
| 39>     H       18.4526561   12.5800672   21.0997259
| 40>     H       16.6230033   13.4370375   22.5670796
| 41>     H       15.3571992   15.1535920   23.0576037
| 42>     H       16.7414777   17.2232617   20.5368159
| 43> *
| 44>
| 45>                          ****END OF INPUT****

CARTESIAN COORDINATES (ANGSTROEM)
---------------------------------
  C     14.216084   14.950779   15.285764
  C     15.693120   14.603536   15.536627
  O     16.346509   15.804521   15.979707
  C     17.466738   15.701487   16.751173
  O     18.087286   14.655646   16.854584
  C     17.751970   16.899391   17.612755
  C     17.199815   18.131353   17.451487
  C     16.206184   18.582835   16.400320
  N     17.596757   19.183640   18.283722
  C     18.631258   19.127897   19.179864
  S     19.122540   20.459700   20.028735
  N     19.238590   17.908115   19.335547
  C     18.757205   16.646527   18.742604
  C     18.158338   15.745491   19.819714
  C     18.630891   14.431367   19.992763
  C     18.082156   13.596605   20.980694
  C     17.050925   14.078964   21.804388
  C     16.574671   15.385837   21.633167
  O     15.574778   15.852600   22.422951
  C     17.122551   16.214184   20.648715
  H     13.744481   15.321318   16.204491
  H     13.664653   14.063801   14.950731
  H     14.126288   15.723695   14.512424
  H     15.744910   13.825733   16.311461
  H     16.168953   14.220457   14.624275
  H     16.559894   18.325750   15.394067
  H     16.036357   19.666208   16.414140
  H     15.234624   18.096051   16.551931
  H     17.163287   20.087588   18.184326
  H     19.977736   17.885092   20.026232
  H     19.626563   16.131858   18.308371
  H     19.416552   14.050016   19.345043
  H     18.452656   12.580067   21.099726
  H     16.623003   13.437038   22.567080
  H     15.357199   15.153592   23.057604
  H     16.741478   17.223262   20.536816

 Total Charge           Charge          ....    0
 Multiplicity           Mult            ....    1
 Number of Electrons    NEL             ....  154
 Basis Dimension        Dim             ....  828

ORBITAL ENERGIES
----------------

  NO   OCC          E(Eh)            E(eV)
   0   2.0000     -91.888098     -2500.4023
   1   2.0000     -20.603578      -560.6519
   2   2.0000     -20.591486      -560.3228
   3   2.0000     -20.545538      -559.0725
   4   2.0000     -15.628569      -425.2750
   5   2.0000     -15.606646      -424.6784
   6   2.0000     -11.395124      -310.0771
   7   2.0000     -11.382931      -309.7453
   8   2.0000     -11.336727      -308.4880
   9   2.0000     -11.307233      -307.6854
  10   2.0000     -11.305368      -307.6347
  11   2.0000     -11.299547      -307.4763
  12   2.0000     -11.260715      -306.4196
  13   2.0000     -11.259048      -306.3743
  14   2.0000     -11.253142      -306.2136
  15   2.0000     -11.247314      -306.0550
  16   2.0000     -11.236994      -305.7742
  17   2.0000     -11.235275      -305.7274
  18   2.0000     -11.233160      -305.6698
  19   2.0000     -11.230045      -305.5851
  20   2.0000      -8.893160      -241.9952
  21   2.0000      -6.574737      -178.9077
  22   2.0000      -6.572731      -178.8531
  23   2.0000      -6.572145      -178.8371
  24   2.0000      -1.455323       -39.6014
  25   2.0000      -1.411221       -38.4013
  26   2.0000      -1.357147       -36.9298
  27   2.0000      -1.339443       -36.4481
  28   2.0000      -1.236980       -33.6599
  29   2.0000      -1.151872       -31.3440
  30   2.0000      -1.119476       -30.4625
  31   2.0000      -1.044896       -28.4331
  32   2.0000      -1.037049       -28.2195
  33   2.0000      -1.009244       -27.4629
  34   2.0000      -0.997712       -27.1491
  35   2.0000      -0.983346       -26.7582
  36   2.0000      -0.920967       -25.0608
  37   2.0000      -0.889187       -24.1960
  38   2.0000      -0.847020       -23.0486
  39   2.0000      -0.834755       -22.7148
  40   2.0000      -0.827530       -22.5182
  41   2.0000      -0.817487       -22.2449
  42   2.0000      -0.762284       -20.7428
  43   2.0000      -0.735908       -20.0251
  44   2.0000      -0.724618       -19.7179
  45   2.0000      -0.690885       -18.7999
  46   2.0000      -0.684492       -18.6260
  47   2.0000      -0.680994       -18.5308
  48   2.0000      -0.675819       -18.3900
  49   2.0000      -0.660055       -17.9610
  50   2.0000      -0.649177       -17.6650
  51   2.0000      -0.643612       -17.5136
  52   2.0000      -0.634951       -17.2779
  53   2.0000      -0.600927       -16.3520
  54   2.0000      -0.600000       -16.3268
  55   2.0000      -0.595207       -16.1964
  56   2.0000      -0.592674       -16.1275
  57   2.0000      -0.582381       -15.8474
  58   2.0000      -0.573013       -15.5925
  59   2.0000      -0.564682       -15.3658
  60   2.0000      -0.561906       -15.2902
  61   2.0000      -0.556243       -15.1361
  62   2.0000      -0.539751       -14.6874
  63   2.0000      -0.520965       -14.1762
  64   2.0000      -0.517240       -14.0748
  65   2.0000      -0.510874       -13.9016
  66   2.0000      -0.502903       -13.6847
  67   2.0000      -0.495519       -13.4838
  68   2.0000      -0.480697       -13.0804
  69   2.0000      -0.464370       -12.6362
  70   2.0000      -0.459628       -12.5071
  71   2.0000      -0.455938       -12.4067
  72   2.0000      -0.354298        -9.6409
  73   2.0000      -0.343774        -9.3546
  74   2.0000      -0.327202        -8.9036
  75   2.0000      -0.315577        -8.5873
  76   2.0000      -0.313498        -8.5307
  77   0.0000       0.075907         2.0655
  78   0.0000       0.113283         3.0826
  79   0.0000       0.120364         3.2753
  80   0.0000       0.135995         3.7006
  81   0.0000       0.138811         3.7772

MULLIKEN ATOMIC CHARGES
-----------------------
   0 C :   -0.276674
   1 C :    0.043844
   2 O :   -0.336474
   3 C :    0.432334
   4 O :   -0.426600
   5 C :   -0.170062
   6 C :    0.143608
   7 C :   -0.287519
   8 N :   -0.121612
   9 C :    0.201337
  10 S :   -0.439088
  11 N :   -0.197014
  12 C :    0.035831
  13 C :    0.058320
  14 C :   -0.160320
  15 C :   -0.134148
  16 C :   -0.279164
  17 C :    0.311408
  18 O :   -0.359298
  19 C :   -0.273399
  20 H :    0.097372
  21 H :    0.103023
  22 H :    0.094003
  23 H :    0.097401
  24 H :    0.095710
  25 H :    0.127513
  26 H :    0.104305
  27 H :    0.126986
  28 H :    0.196723
  29 H :    0.193571
  30 H :    0.153428
  31 H :    0.153220
  32 H :    0.159047
  33 H :    0.127940
  34 H :    0.240054
  35 H :    0.164394
Sum of atomic charges:   -0.0000000

LOEWDIN ATOMIC CHARGES
----------------------
   0 C :    0.105980
   1 C :   -0.016012
   2 O :    0.306961
   3 C :   -0.415490
   4 O :    0.103898
   5 C :   -0.091609
   6 C :   -0.065569
   7 C :    0.124950
   8 N :    0.404863
   9 C :   -0.458958
  10 S :   -0.035845
  11 N :    0.397912
  12 C :   -0.046513
  13 C :   -0.038761
  14 C :    0.022376
  15 C :    0.040864
  16 C :   -0.002447
  17 C :   -0.192768
  18 O :    0.392863
  19 C :    0.028158
  20 H :   -0.026986
  21 H :   -0.022867
  22 H :   -0.029034
  23 H :   -0.025738
  24 H :   -0.029721
  25 H :   -0.008476
  26 H :   -0.021038
  27 H :   -0.010056
  28 H :   -0.059208
  29 H :   -0.063642
  30 H :   -0.004936
  31 H :   -0.025252
  32 H :   -0.021243
  33 H :   -0.036462
  34 H :   -0.154947
  35 H :   -0.025246

  Mayer bond orders larger than 0.100000
B(  0-C ,  1-C ) :   0.9709 B(  0-C , 20-H ) :   0.9768 B(  0-C , 21-H ) :   0.9789
B(  0-C , 22-H ) :   0.9778 B(  1-C ,  2-O ) :   0.9034 B(  1-C , 23-H ) :   0.9737
B(  1-C , 24-H ) :   0.9814 B(  2-O ,  3-C ) :   1.1681 B(  3-C ,  4-O ) :   1.9861
B(  3-C ,  5-C ) :   1.0553 B(  5-C ,  6-C ) :   1.6451 B(  5-C , 12-C ) :   0.9663
B(  6-C ,  7-C ) :   0.9544 B(  6-C ,  8-N ) :   1.1485 B(  7-C , 25-H ) :   0.9654
B(  7-C , 26-H ) :   0.9918 B(  7-C , 27-H ) :   0.9639 B(  8-N ,  9-C ) :   1.1780
B(  8-N , 28-H ) :   0.9488 B(  9-C , 10-S ) :   1.6109 B(  9-C , 11-N ) :   1.3046
B( 11-N , 12-C ) :   0.9921 B( 11-N , 29-H ) :   0.9520 B( 12-C , 13-C ) :   0.9476
B( 12-C , 30-H ) :   0.9998 B( 13-C , 14-C ) :   1.3757 B( 13-C , 19-C ) :   1.3691
B( 14-C , 15-C ) :   1.3946 B( 14-C , 31-H ) :   0.9649 B( 15-C , 16-C ) :   1.3624
B( 15-C , 32-H ) :   0.9714 B( 16-C , 17-C ) :   1.3315 B( 16-C , 33-H ) :   0.9860
B( 17-C , 18-O ) :   1.1079 B( 17-C , 19-C ) :   1.3793 B( 18-O , 34-H ) :   0.9806
B( 19-C , 35-H ) :   0.9586

MP2 TOTAL ENERGY:    -1274.347991508 Eh
FINAL SINGLE POINT ENERGY     -1274.347991507751

DIPOLE MOMENT
-------------
                                X             Y             Z
Electronic contribution:     12.00343       8.67790      10.61005
Nuclear contribution   :    -13.50022     -10.00430     -11.57828
                        -----------------------------------------
Total Dipole Moment    :     -1.49679      -1.32640      -0.96822
                        -----------------------------------------
Magnitude (a.u.)       :      2.22198
Magnitude (Debye)      :      5.64781

Rotational constants in cm-1:     0.010296     0.008958     0.005945
Rotational constants in MHz :   308.671122   268.558172   178.235717

                             ****ORCA TERMINATED NORMALLY****
TOTAL RUN TIME: 0 days 1 hours 38 minutes 4 seconds 379 msec
