                         Program Version 5.0.0 -  RELEASE  -
|  1> ! ri-mp2 cc-pvtz cc-pvtz/c TightSCF NoKeepInts
|  2>
|  3> %scf
|  4>   MaxCore 4096
|  5> end
|  6> *xyz  0  1
|  7>     C       15.5749433   13.6993841   15.3743323
|  8>     C       15.0970779   15.0388322   15.9764161
|  9>     O       16.1474166   16.0294327   16.0776847
| 10>     C       17.3501914   15.8175282   16.6982278
| 11>     O       17.8475974   14.7141010   16.8416520
| 12>     C       17.7665099   16.9719143   17.5641939
| 13>     C       17.4125910   18.2657204   17.3482119
| 14>     C       16.5772225   18.8249036   16.2146475
| 15>     N       17.9029865   19.2700786   18.1891641
| 16>     C       18.8558012   19.0864670   19.1561626
| 17>     S       19.4735376   20.3526930   20.0226236
| 18>     N       19.2713727   17.7963416   19.3674689
| 19>     C       18.6611355   16.6021850   18.7530852
| 20>     C       17.8818678   15.8045326   19.7957581
| 21>     C       18.1571714   14.4399073   20.0008506
| 22>     C       17.4399170   13.6995356   20.9554620
| 23>     C       16.4371943   14.3282411   21.7130073
| 24>     C       16.1568221   15.6861510   21.5091757
| 25>     O       15.1843824   16.2944561   22.2342311
| 26>     C       16.8720217   16.4202665   20.5578463
| 27>     H       16.2389277   13.8696960   14.5177482
| 28>     H       14.7162883   13.1116045   15.0284836
| 29>     H       16.1071277   13.0924962   16.1169272
| 30>     H       14.2964558   15.4450869   15.3451865
| 31>     H       14.6709128   14.8501433   16.9707116
| 32>     H       15.5160482   18.5898943   16.3637805
| 33>     H       16.8860183   18.3964880   15.2529235
| 34>     H       16.6669829   19.9141071   16.1222112
| 35>     H       17.6106601   20.2239817   18.0491673
| 36>     H       19.9520676   17.6836974   20.1076354
| 37>     H       19.4772626   15.9696658   18.3748394
| 38>     H       18.9200151   13.9470786   19.4029285
| 39>     H       17.6590127   12.6431255   21.0996935
| 40>     H       15.8796729   13.7597656   22.4498293
| 41>     H       14.8407321   15.6417480   22.8624590
| 42>     H       16.6410548   17.4707490   20.4192735
| 43> *
| 44>
| 45>                          ****END OF INPUT****

CARTESIAN COORDINATES (ANGSTROEM)
---------------------------------
  C     15.574943   13.699384   15.374332
  C     15.097078   15.038832   15.976416
  O     16.147417   16.029433   16.077685
  C     17.350191   15.817528   16.698228
  O     17.847597   14.714101   16.841652
  C     17.766510   16.971914   17.564194
  C     17.412591   18.265720   17.348212
  C     16.577223   18.824904   16.214648
  N     17.902987   19.270079   18.189164
  C     18.855801   19.086467   19.156163
  S     19.473538   20.352693   20.022624
  N     19.271373   17.796342   19.367469
  C     18.661136   16.602185   18.753085
  C     17.881868   15.804533   19.795758
  C     18.157171   14.439907   20.000851
  C     17.439917   13.699536   20.955462
  C     16.437194   14.328241   21.713007
  C     16.156822   15.686151   21.509176
  O     15.184382   16.294456   22.234231
  C     16.872022   16.420267   20.557846
  H     16.238928   13.869696   14.517748
  H     14.716288   13.111604   15.028484
  H     16.107128   13.092496   16.116927
  H     14.296456   15.445087   15.345187
  H     14.670913   14.850143   16.970712
  H     15.516048   18.589894   16.363781
  H     16.886018   18.396488   15.252923
  H     16.666983   19.914107   16.122211
  H     17.610660   20.223982   18.049167
  H     19.952068   17.683697   20.107635
  H     19.477263   15.969666   18.374839
  H     18.920015   13.947079   19.402929
  H     17.659013   12.643126   21.099694
  H     15.879673   13.759766   22.449829
  H     14.840732   15.641748   22.862459
  H     16.641055   17.470749   20.419273

 Total Charge           Charge          ....    0
 Multiplicity           Mult            ....    1
 Number of Electrons    NEL             ....  154
 Basis Dimension        Dim             ....  828

ORBITAL ENERGIES
----------------

  NO   OCC          E(Eh)            E(eV)
   0   2.0000     -91.887411     -2500.3836
   1   2.0000     -20.595821      -560.4408
   2   2.0000     -20.592613      -560.3535
   3   2.0000     -20.549046      -559.1680
   4   2.0000     -15.627044      -425.2335
   5   2.0000     -15.606417      -424.6722
   6   2.0000     -11.397993      -310.1552
   7   2.0000     -11.382444      -309.7320
   8   2.0000     -11.333339      -308.3958
   9   2.0000     -11.308558      -307.7215
  10   2.0000     -11.305901      -307.6492
  11   2.0000     -11.304791      -307.6190
  12   2.0000     -11.259190      -306.3781
  13   2.0000     -11.258148      -306.3498
  14   2.0000     -11.254331      -306.2459
  15   2.0000     -11.248795      -306.0953
  16   2.0000     -11.238364      -305.8114
  17   2.0000     -11.234287      -305.7005
  18   2.0000     -11.231494      -305.6245
  19   2.0000     -11.221740      -305.3591
  20   2.0000      -8.892486      -241.9769
  21   2.0000      -6.574067      -178.8895
  22   2.0000      -6.572057      -178.8348
  23   2.0000      -6.571474      -178.8189
  24   2.0000      -1.448216       -39.4080
  25   2.0000      -1.412356       -38.4322
  26   2.0000      -1.357900       -36.9503
  27   2.0000      -1.338306       -36.4171
  28   2.0000      -1.236273       -33.6407
  29   2.0000      -1.152765       -31.3683
  30   2.0000      -1.118889       -30.4465
  31   2.0000      -1.041960       -28.3532
  32   2.0000      -1.033053       -28.1108
  33   2.0000      -1.010287       -27.4913
  34   2.0000      -0.996676       -27.1209
  35   2.0000      -0.982010       -26.7218
  36   2.0000      -0.921309       -25.0701
  37   2.0000      -0.892797       -24.2943
  38   2.0000      -0.847380       -23.0584
  39   2.0000      -0.836165       -22.7532
  40   2.0000      -0.828873       -22.5548
  41   2.0000      -0.819483       -22.2993
  42   2.0000      -0.745746       -20.2928
  43   2.0000      -0.728830       -19.8325
  44   2.0000      -0.725347       -19.7377
  45   2.0000      -0.691351       -18.8126
  46   2.0000      -0.684460       -18.6251
  47   2.0000      -0.679901       -18.5010
  48   2.0000      -0.670769       -18.2526
  49   2.0000      -0.665082       -18.0978
  50   2.0000      -0.645324       -17.5601
  51   2.0000      -0.642518       -17.4838
  52   2.0000      -0.634200       -17.2575
  53   2.0000      -0.603228       -16.4147
  54   2.0000      -0.600242       -16.3334
  55   2.0000      -0.596971       -16.2444
  56   2.0000      -0.595676       -16.2092
  57   2.0000      -0.585712       -15.9380
  58   2.0000      -0.573215       -15.5980
  59   2.0000      -0.570114       -15.5136
  60   2.0000      -0.559664       -15.2292
  61   2.0000      -0.545005       -14.8303
  62   2.0000      -0.536063       -14.5870
  63   2.0000      -0.521004       -14.1772
  64   2.0000      -0.517932       -14.0936
  65   2.0000      -0.510390       -13.8884
  66   2.0000      -0.499944       -13.6042
  67   2.0000      -0.495220       -13.4756
  68   2.0000      -0.479462       -13.0468
  69   2.0000      -0.461787       -12.5659
  70   2.0000      -0.457453       -12.4479
  71   2.0000      -0.446259       -12.1433
  72   2.0000      -0.352943        -9.6041
  73   2.0000      -0.344669        -9.3789
  74   2.0000      -0.326664        -8.8890
  75   2.0000      -0.315856        -8.5949
  76   2.0000      -0.314108        -8.5473
  77   0.0000       0.075925         2.0660
  78   0.0000       0.110795         3.0149
  79   0.0000       0.121483         3.3057
  80   0.0000       0.135325         3.6824
  81   0.0000       0.139610         3.7990

MULLIKEN ATOMIC CHARGES
-----------------------
   0 C :   -0.286643
   1 C :    0.049586
   2 O :   -0.366595
   3 C :    0.437678
   4 O :   -0.418865
   5 C :   -0.147643
   6 C :    0.137006
   7 C :   -0.284981
   8 N :   -0.122631
   9 C :    0.201818
  10 S :   -0.441023
  11 N :   -0.198658
  12 C :    0.039671
  13 C :    0.053574
  14 C :   -0.165226
  15 C :   -0.133912
  16 C :   -0.279846
  17 C :    0.311300
  18 O :   -0.358706
  19 C :   -0.272040
  20 H :    0.097598
  21 H :    0.092617
  22 H :    0.120754
  23 H :    0.098208
  24 H :    0.090405
  25 H :    0.125964
  26 H :    0.124449
  27 H :    0.102229
  28 H :    0.196699
  29 H :    0.193656
  30 H :    0.154908
  31 H :    0.154738
  32 H :    0.159586
  33 H :    0.128546
  34 H :    0.240117
  35 H :    0.165659
Sum of atomic charges:    0.0000000

LOEWDIN ATOMIC CHARGES
----------------------
   0 C :    0.103173
   1 C :   -0.011078
   2 O :    0.290649
   3 C :   -0.411008
   4 O :    0.121059
   5 C :   -0.090938
   6 C :   -0.069682
   7 C :    0.124840
   8 N :    0.404203
   9 C :   -0.458577
  10 S :   -0.037360
  11 N :    0.397503
  12 C :   -0.045983
  13 C :   -0.039075
  14 C :    0.020908
  15 C :    0.040413
  16 C :   -0.002586
  17 C :   -0.192917
  18 O :    0.393139
  19 C :    0.028682
  20 H :   -0.025626
  21 H :   -0.030091
  22 H :   -0.026183
  23 H :   -0.024545
  24 H :   -0.028905
  25 H :   -0.009993
  26 H :   -0.008702
  27 H :   -0.020670
  28 H :   -0.059177
  29 H :   -0.063935
  30 H :   -0.005263
  31 H :   -0.025314
  32 H :   -0.021193
  33 H :   -0.036323
  34 H :   -0.154813
  35 H :   -0.024636

  Mayer bond orders larger than 0.100000
B(  0-C ,  1-C ) :   0.9726 B(  0-C , 20-H ) :   0.9756 B(  0-C , 21-H ) :   0.9756
B(  0-C , 22-H ) :   0.9721 B(  1-C ,  2-O ) :   0.9063 B(  1-C , 23-H ) :   0.9831
B(  1-C , 24-H ) :   0.9778 B(  2-O ,  3-C ) :   1.1036 B(  3-C ,  4-O ) :   1.9879
B(  3-C ,  5-C ) :   1.0489 B(  5-C ,  6-C ) :   1.6595 B(  5-C , 12-C ) :   0.9634
B(  6-C ,  7-C ) :   0.9546 B(  6-C ,  8-N ) :   1.1401 B(  7-C , 25-H ) :   0.9634
B(  7-C , 26-H ) :   0.9680 B(  7-C , 27-H ) :   0.9904 B(  8-N ,  9-C ) :   1.1824
B(  8-N , 28-H ) :   0.9494 B(  9-C , 10-S ) :   1.6093 B(  9-C , 11-N ) :   1.3023
B( 11-N , 12-C ) :   0.9921 B( 11-N , 29-H ) :   0.9519 B( 12-C , 13-C ) :   0.9465
B( 12-C , 30-H ) :   0.9990 B( 13-C , 14-C ) :   1.3762 B( 13-C , 19-C ) :   1.3693
B( 14-C , 15-C ) :   1.3943 B( 14-C , 31-H ) :   0.9646 B( 15-C , 16-C ) :   1.3630
B( 15-C , 32-H ) :   0.9712 B( 16-C , 17-C ) :   1.3312 B( 16-C , 33-H ) :   0.9858
B( 17-C , 18-O ) :   1.1085 B( 17-C , 19-C ) :   1.3779 B( 18-O , 34-H ) :   0.9805
B( 19-C , 35-H ) :   0.9582

MP2 TOTAL ENERGY:    -1274.332626083 Eh
FINAL SINGLE POINT ENERGY     -1274.332626083095

DIPOLE MOMENT
-------------
                                X             Y             Z
Electronic contribution:      9.95791      10.59148      10.07907
Nuclear contribution   :    -11.58061     -11.80459     -10.95173
                        -----------------------------------------
Total Dipole Moment    :     -1.62270      -1.21311      -0.87266
                        -----------------------------------------
Magnitude (a.u.)       :      2.20598
Magnitude (Debye)      :      5.60715

Rotational constants in cm-1:     0.010988     0.008977     0.006017
Rotational constants in MHz :   329.424624   269.129362   180.384979

                             ****ORCA TERMINATED NORMALLY****
TOTAL RUN TIME: 0 days 1 hours 51 minutes 14 seconds 563 msec
