                         Program Version 4.2.0 -  RELEASE  -
|  1> ! ri-mp2 cc-pvtz cc-pvtz/c TightSCF  NoKeepInts
|  2>
|  3> %scf
|  4>   MaxCore 4096
|  5> end
|  6> *xyz  0  1
|  7>     C       15.0801299   15.6433085   17.1432691
|  8>     C       16.0046363   14.4187961   16.9516505
|  9>     O       17.3542424   14.7107805   16.4970815
| 10>     C       17.8333928   15.9467219   16.1585651
| 11>     O       17.8753923   16.2562447   14.9821599
| 12>     C       17.8404935   16.9631626   17.2663536
| 13>     C       17.4671328   18.2518409   17.0648835
| 14>     C       16.8547072   18.8424206   15.8128266
| 15>     N       17.6697384   19.2047048   18.0663155
| 16>     C       18.4039521   18.9956189   19.2028209
| 17>     S       18.7064146   20.2090272   20.2847243
| 18>     N       18.8824183   17.7246767   19.3977901
| 19>     C       18.5280116   16.5466902   18.5824579
| 20>     C       17.7677433   15.5406787   19.4432287
| 21>     C       18.1982330   14.2015025   19.5110271
| 22>     C       17.5237507   13.2716120   20.3200086
| 23>     C       16.4143607   13.6844535   21.0769496
| 24>     C       15.9936697   15.0201638   21.0281718
| 25>     O       14.9249640   15.4234321   21.7597014
| 26>     C       16.6687812   15.9438169   20.2242838
| 27>     H       15.4073030   16.3029240   17.9497863
| 28>     H       14.0690438   15.3037372   17.3988457
| 29>     H       15.0047233   16.2222252   16.2153540
| 30>     H       16.0487949   13.8534349   17.8904383
| 31>     H       15.5368455   13.7578013   16.2105696
| 32>     H       17.6243874   18.9825723   15.0427827
| 33>     H       16.3744998   19.8115732   15.9916851
| 34>     H       16.0946681   18.1750880   15.3901041
| 35>     H       17.3469537   20.1490652   17.9270765
| 36>     H       19.4013781   17.5976900   20.2576172
| 37>     H       19.4756404   16.0690421   18.2959379
| 38>     H       19.0533421   13.8758509   18.9238905
| 39>     H       17.8616623   12.2371470   20.3583046
| 40>     H       15.8896751   12.9695592   21.7025584
| 41>     H       14.6339439   14.6691976   22.2943210
| 42>     H       16.3319738   16.9754388   20.2104586
| 43> *
| 44>
| 45>                          ****END OF INPUT****

CARTESIAN COORDINATES (ANGSTROEM)
---------------------------------
  C     15.080130   15.643308   17.143269
  C     16.004636   14.418796   16.951650
  O     17.354242   14.710780   16.497082
  C     17.833393   15.946722   16.158565
  O     17.875392   16.256245   14.982160
  C     17.840494   16.963163   17.266354
  C     17.467133   18.251841   17.064883
  C     16.854707   18.842421   15.812827
  N     17.669738   19.204705   18.066316
  C     18.403952   18.995619   19.202821
  S     18.706415   20.209027   20.284724
  N     18.882418   17.724677   19.397790
  C     18.528012   16.546690   18.582458
  C     17.767743   15.540679   19.443229
  C     18.198233   14.201502   19.511027
  C     17.523751   13.271612   20.320009
  C     16.414361   13.684454   21.076950
  C     15.993670   15.020164   21.028172
  O     14.924964   15.423432   21.759701
  C     16.668781   15.943817   20.224284
  H     15.407303   16.302924   17.949786
  H     14.069044   15.303737   17.398846
  H     15.004723   16.222225   16.215354
  H     16.048795   13.853435   17.890438
  H     15.536846   13.757801   16.210570
  H     17.624387   18.982572   15.042783
  H     16.374500   19.811573   15.991685
  H     16.094668   18.175088   15.390104
  H     17.346954   20.149065   17.927076
  H     19.401378   17.597690   20.257617
  H     19.475640   16.069042   18.295938
  H     19.053342   13.875851   18.923890
  H     17.861662   12.237147   20.358305
  H     15.889675   12.969559   21.702558
  H     14.633944   14.669198   22.294321
  H     16.331974   16.975439   20.210459

 Total Charge           Charge          ....    0
 Multiplicity           Mult            ....    1
 Number of Electrons    NEL             ....  154
 Basis Dimension        Dim             ....  828

ORBITAL ENERGIES
----------------

  NO   OCC          E(Eh)            E(eV)
   0   2.0000     -91.891244     -2500.4879
   1   2.0000     -20.602436      -560.6208
   2   2.0000     -20.577952      -559.9546
   3   2.0000     -20.552979      -559.2750
   4   2.0000     -15.629336      -425.2959
   5   2.0000     -15.611386      -424.8074
   6   2.0000     -11.394766      -310.0673
   7   2.0000     -11.386290      -309.8367
   8   2.0000     -11.333578      -308.4023
   9   2.0000     -11.320195      -308.0382
  10   2.0000     -11.316604      -307.9404
  11   2.0000     -11.302183      -307.5480
  12   2.0000     -11.266300      -306.5716
  13   2.0000     -11.260627      -306.4172
  14   2.0000     -11.260288      -306.4080
  15   2.0000     -11.254953      -306.2629
  16   2.0000     -11.250030      -306.1289
  17   2.0000     -11.245569      -306.0075
  18   2.0000     -11.244110      -305.9678
  19   2.0000     -11.231310      -305.6195
  20   2.0000      -8.896305      -242.0808
  21   2.0000      -6.577881      -178.9932
  22   2.0000      -6.575873      -178.9386
  23   2.0000      -6.575284      -178.9226
  24   2.0000      -1.441757       -39.2322
  25   2.0000      -1.422257       -38.7016
  26   2.0000      -1.349978       -36.7348
  27   2.0000      -1.341760       -36.5111
  28   2.0000      -1.241395       -33.7801
  29   2.0000      -1.163119       -31.6501
  30   2.0000      -1.122021       -30.5317
  31   2.0000      -1.047789       -28.5118
  32   2.0000      -1.033384       -28.1198
  33   2.0000      -1.021712       -27.8022
  34   2.0000      -1.002411       -27.2770
  35   2.0000      -0.988312       -26.8933
  36   2.0000      -0.927100       -25.2277
  37   2.0000      -0.898023       -24.4364
  38   2.0000      -0.850381       -23.1400
  39   2.0000      -0.843667       -22.9573
  40   2.0000      -0.840785       -22.8789
  41   2.0000      -0.823724       -22.4147
  42   2.0000      -0.746831       -20.3223
  43   2.0000      -0.736763       -20.0483
  44   2.0000      -0.721426       -19.6310
  45   2.0000      -0.701038       -19.0762
  46   2.0000      -0.690211       -18.7816
  47   2.0000      -0.675353       -18.3773
  48   2.0000      -0.672760       -18.3067
  49   2.0000      -0.659749       -17.9527
  50   2.0000      -0.656235       -17.8571
  51   2.0000      -0.647571       -17.6213
  52   2.0000      -0.639665       -17.4062
  53   2.0000      -0.624903       -17.0045
  54   2.0000      -0.612111       -16.6564
  55   2.0000      -0.604983       -16.4624
  56   2.0000      -0.602536       -16.3958
  57   2.0000      -0.581549       -15.8248
  58   2.0000      -0.575718       -15.6661
  59   2.0000      -0.566838       -15.4245
  60   2.0000      -0.553610       -15.0645
  61   2.0000      -0.551147       -14.9975
  62   2.0000      -0.542087       -14.7509
  63   2.0000      -0.530953       -14.4480
  64   2.0000      -0.527735       -14.3604
  65   2.0000      -0.516262       -14.0482
  66   2.0000      -0.505066       -13.7435
  67   2.0000      -0.492790       -13.4095
  68   2.0000      -0.479514       -13.0483
  69   2.0000      -0.472295       -12.8518
  70   2.0000      -0.451032       -12.2732
  71   2.0000      -0.445655       -12.1269
  72   2.0000      -0.358507        -9.7555
  73   2.0000      -0.350725        -9.5437
  74   2.0000      -0.330804        -9.0016
  75   2.0000      -0.327684        -8.9167
  76   2.0000      -0.319452        -8.6927
  77   0.0000       0.072960         1.9853
  78   0.0000       0.100167         2.7257
  79   0.0000       0.118015         3.2114
  80   0.0000       0.126502         3.4423
  81   0.0000       0.131337         3.5739

MULLIKEN ATOMIC CHARGES
-----------------------
   0 C :   -0.350521
   1 C :    0.039089
   2 O :   -0.373944
   3 C :    0.443973
   4 O :   -0.373416
   5 C :   -0.256406
   6 C :    0.164280
   7 C :   -0.280416
   8 N :   -0.124317
   9 C :    0.198131
  10 S :   -0.435806
  11 N :   -0.203879
  12 C :    0.065346
  13 C :    0.032151
  14 C :   -0.180721
  15 C :   -0.137430
  16 C :   -0.277156
  17 C :    0.322237
  18 O :   -0.355449
  19 C :   -0.278167
  20 H :    0.115287
  21 H :    0.125313
  22 H :    0.109389
  23 H :    0.112578
  24 H :    0.125319
  25 H :    0.143033
  26 H :    0.094526
  27 H :    0.124118
  28 H :    0.197605
  29 H :    0.195480
  30 H :    0.152188
  31 H :    0.147994
  32 H :    0.164802
  33 H :    0.134302
  34 H :    0.241597
  35 H :    0.178889
Sum of atomic charges:   -0.0000000

LOEWDIN ATOMIC CHARGES
----------------------
   0 C :    0.104950
   1 C :   -0.007214
   2 O :    0.276919
   3 C :   -0.424099
   4 O :    0.134289
   5 C :   -0.093466
   6 C :   -0.069170
   7 C :    0.129961
   8 N :    0.406006
   9 C :   -0.458853
  10 S :   -0.033775
  11 N :    0.396783
  12 C :   -0.052178
  13 C :   -0.041808
  14 C :    0.019819
  15 C :    0.040036
  16 C :   -0.001421
  17 C :   -0.192664
  18 O :    0.396732
  19 C :    0.032877
  20 H :   -0.037795
  21 H :   -0.020039
  22 H :   -0.030214
  23 H :   -0.027567
  24 H :   -0.024890
  25 H :   -0.002976
  26 H :   -0.022207
  27 H :   -0.011371
  28 H :   -0.057652
  29 H :   -0.063989
  30 H :   -0.008508
  31 H :   -0.027569
  32 H :   -0.019536
  33 H :   -0.034031
  34 H :   -0.152642
  35 H :   -0.022737

  Mayer bond orders larger than 0.100000
B(  0-C ,  1-C ) :   0.9630 B(  0-C , 20-H ) :   0.9675 B(  0-C , 21-H ) :   0.9755
B(  0-C , 22-H ) :   0.9741 B(  1-C ,  2-O ) :   0.8864 B(  1-C , 23-H ) :   0.9709
B(  1-C , 24-H ) :   0.9841 B(  2-O ,  3-C ) :   1.1355 B(  3-C ,  4-O ) :   2.0829
B(  3-C ,  5-C ) :   0.9736 B(  5-C ,  6-C ) :   1.6810 B(  5-C , 12-C ) :   0.9605
B(  6-C ,  7-C ) :   0.9598 B(  6-C ,  8-N ) :   1.1400 B(  7-C , 25-H ) :   0.9571
B(  7-C , 26-H ) :   0.9861 B(  7-C , 27-H ) :   0.9697 B(  8-N ,  9-C ) :   1.1884
B(  8-N , 28-H ) :   0.9493 B(  9-C , 10-S ) :   1.6165 B(  9-C , 11-N ) :   1.2889
B( 11-N , 12-C ) :   0.9941 B( 11-N , 29-H ) :   0.9505 B( 12-C , 13-C ) :   0.9368
B( 12-C , 30-H ) :   1.0091 B( 13-C , 14-C ) :   1.3628 B( 13-C , 19-C ) :   1.3539
B( 14-C , 15-C ) :   1.3981 B( 14-C , 31-H ) :   0.9730 B( 15-C , 16-C ) :   1.3571
B( 15-C , 32-H ) :   0.9705 B( 16-C , 17-C ) :   1.3305 B( 16-C , 33-H ) :   0.9838
B( 17-C , 18-O ) :   1.1130 B( 17-C , 19-C ) :   1.3645 B( 18-O , 34-H ) :   0.9790
B( 19-C , 35-H ) :   0.9552

MP2 TOTAL ENERGY:    -1274.315295863 Eh
FINAL SINGLE POINT ENERGY     -1274.315295862905

DIPOLE MOMENT
-------------
                                X             Y             Z
Electronic contribution:      9.58444       6.44075       5.69072
Nuclear contribution   :    -10.77879      -7.99154      -5.47757
                        -----------------------------------------
Total Dipole Moment    :     -1.19435      -1.55079       0.21315
                        -----------------------------------------
Magnitude (a.u.)       :      1.96897
Magnitude (Debye)      :      5.00473

Rotational constants in cm-1:     0.012190     0.009676     0.006614
Rotational constants in MHz :   365.439652   290.069232   198.296343

                             ****ORCA TERMINATED NORMALLY****
TOTAL RUN TIME: 0 days 2 hours 21 minutes 33 seconds 631 msec
