                         Program Version 5.0.0 -  RELEASE  -
|  1> ! ri-mp2 cc-pvtz cc-pvtz/c TightSCF NoKeepInts
|  2>
|  3> %scf
|  4>   MaxCore 4096
|  5> end
|  6> *xyz  0  1
|  7>     C       14.7978560   14.6164150   16.1614116
|  8>     C       15.9931566   14.7017780   17.1261195
|  9>     O       17.1645878   14.9858934   16.3369872
| 10>     C       17.5545259   16.2768416   16.1196104
| 11>     O       17.4866552   16.7412706   14.9967976
| 12>     C       17.7449396   17.1233704   17.3474032
| 13>     C       17.3645040   18.4242067   17.3762147
| 14>     C       16.5538807   19.1566241   16.3295492
| 15>     N       17.7600467   19.2450031   18.4359553
| 16>     C       18.7196319   18.9092154   19.3547384
| 17>     S       19.2806083   19.9922626   20.4712810
| 18>     N       19.1988013   17.6238811   19.2953050
| 19>     C       18.6051113   16.5424568   18.4856609
| 20>     C       17.8748758   15.5755179   19.4111803
| 21>     C       18.2556941   14.2212695   19.4654816
| 22>     C       17.5873951   13.3242697   20.3155935
| 23>     C       16.5341608   13.7852675   21.1235726
| 24>     C       16.1599992   15.1350921   21.0818240
| 25>     O       15.1423816   15.5833391   21.8585065
| 26>     C       16.8254874   16.0255638   20.2336137
| 27>     H       14.6446667   15.5727145   15.6454294
| 28>     H       13.8790469   14.3686006   16.7065149
| 29>     H       14.9683381   13.8410174   15.4039355
| 30>     H       15.7925901   15.4753643   17.8750340
| 31>     H       16.1128435   13.7377160   17.6371326
| 32>     H       15.7290682   18.5317776   15.9646606
| 33>     H       17.1820471   19.4032681   15.4635476
| 34>     H       16.1166614   20.0882099   16.7075831
| 35>     H       17.4372131   20.1988982   18.4749243
| 36>     H       19.8922777   17.4007004   19.9980577
| 37>     H       19.4339037   15.9946645   18.0149027
| 38>     H       19.0673951   13.8591313   18.8392994
| 39>     H       17.8872657   12.2778343   20.3474821
| 40>     H       16.0155892   13.0956787   21.7819679
| 41>     H       14.8597053   14.8490873   22.4247307
| 42>     H       16.5240890   17.0677984   20.2219913
| 43> *
| 44>
| 45>                          ****END OF INPUT****

CARTESIAN COORDINATES (ANGSTROEM)
---------------------------------
  C     14.797856   14.616415   16.161412
  C     15.993157   14.701778   17.126119
  O     17.164588   14.985893   16.336987
  C     17.554526   16.276842   16.119610
  O     17.486655   16.741271   14.996798
  C     17.744940   17.123370   17.347403
  C     17.364504   18.424207   17.376215
  C     16.553881   19.156624   16.329549
  N     17.760047   19.245003   18.435955
  C     18.719632   18.909215   19.354738
  S     19.280608   19.992263   20.471281
  N     19.198801   17.623881   19.295305
  C     18.605111   16.542457   18.485661
  C     17.874876   15.575518   19.411180
  C     18.255694   14.221270   19.465482
  C     17.587395   13.324270   20.315593
  C     16.534161   13.785267   21.123573
  C     16.159999   15.135092   21.081824
  O     15.142382   15.583339   21.858507
  C     16.825487   16.025564   20.233614
  H     14.644667   15.572715   15.645429
  H     13.879047   14.368601   16.706515
  H     14.968338   13.841017   15.403935
  H     15.792590   15.475364   17.875034
  H     16.112844   13.737716   17.637133
  H     15.729068   18.531778   15.964661
  H     17.182047   19.403268   15.463548
  H     16.116661   20.088210   16.707583
  H     17.437213   20.198898   18.474924
  H     19.892278   17.400700   19.998058
  H     19.433904   15.994664   18.014903
  H     19.067395   13.859131   18.839299
  H     17.887266   12.277834   20.347482
  H     16.015589   13.095679   21.781968
  H     14.859705   14.849087   22.424731
  H     16.524089   17.067798   20.221991

 Total Charge           Charge          ....    0
 Multiplicity           Mult            ....    1
 Number of Electrons    NEL             ....  154
 Basis Dimension        Dim             ....  828

ORBITAL ENERGIES
----------------

  NO   OCC          E(Eh)            E(eV)
   0   2.0000     -91.891901     -2500.5057
   1   2.0000     -20.603554      -560.6512
   2   2.0000     -20.586535      -560.1881
   3   2.0000     -20.551073      -559.2231
   4   2.0000     -15.630678      -425.3324
   5   2.0000     -15.611817      -424.8191
   6   2.0000     -11.393777      -310.0404
   7   2.0000     -11.386902      -309.8533
   8   2.0000     -11.335172      -308.4457
   9   2.0000     -11.321760      -308.0808
  10   2.0000     -11.317511      -307.9651
  11   2.0000     -11.295880      -307.3765
  12   2.0000     -11.266773      -306.5845
  13   2.0000     -11.262766      -306.4754
  14   2.0000     -11.260522      -306.4144
  15   2.0000     -11.255837      -306.2869
  16   2.0000     -11.251250      -306.1621
  17   2.0000     -11.245564      -306.0073
  18   2.0000     -11.245396      -306.0028
  19   2.0000     -11.223764      -305.4142
  20   2.0000      -8.896930      -242.0978
  21   2.0000      -6.578496      -179.0100
  22   2.0000      -6.576499      -178.9556
  23   2.0000      -6.575903      -178.9394
  24   2.0000      -1.446873       -39.3714
  25   2.0000      -1.423312       -38.7303
  26   2.0000      -1.355754       -36.8920
  27   2.0000      -1.342729       -36.5375
  28   2.0000      -1.241972       -33.7958
  29   2.0000      -1.164444       -31.6861
  30   2.0000      -1.123290       -30.5663
  31   2.0000      -1.049048       -28.5460
  32   2.0000      -1.031995       -28.0820
  33   2.0000      -1.023013       -27.8376
  34   2.0000      -1.001562       -27.2539
  35   2.0000      -0.988329       -26.8938
  36   2.0000      -0.928012       -25.2525
  37   2.0000      -0.882656       -24.0183
  38   2.0000      -0.852164       -23.1886
  39   2.0000      -0.845784       -23.0150
  40   2.0000      -0.841628       -22.9019
  41   2.0000      -0.834062       -22.6960
  42   2.0000      -0.756175       -20.5766
  43   2.0000      -0.737342       -20.0641
  44   2.0000      -0.720649       -19.6099
  45   2.0000      -0.702839       -19.1252
  46   2.0000      -0.693315       -18.8661
  47   2.0000      -0.680874       -18.5275
  48   2.0000      -0.670915       -18.2565
  49   2.0000      -0.669520       -18.2186
  50   2.0000      -0.653024       -17.7697
  51   2.0000      -0.648536       -17.6476
  52   2.0000      -0.639003       -17.3882
  53   2.0000      -0.613446       -16.6927
  54   2.0000      -0.608203       -16.5500
  55   2.0000      -0.603393       -16.4192
  56   2.0000      -0.595402       -16.2017
  57   2.0000      -0.583216       -15.8701
  58   2.0000      -0.576737       -15.6938
  59   2.0000      -0.571598       -15.5540
  60   2.0000      -0.561196       -15.2709
  61   2.0000      -0.550296       -14.9743
  62   2.0000      -0.541780       -14.7426
  63   2.0000      -0.531017       -14.4497
  64   2.0000      -0.520603       -14.1663
  65   2.0000      -0.518034       -14.0964
  66   2.0000      -0.506819       -13.7912
  67   2.0000      -0.500496       -13.6192
  68   2.0000      -0.482972       -13.1423
  69   2.0000      -0.468467       -12.7476
  70   2.0000      -0.452437       -12.3114
  71   2.0000      -0.446507       -12.1501
  72   2.0000      -0.359379        -9.7792
  73   2.0000      -0.354375        -9.6430
  74   2.0000      -0.332081        -9.0364
  75   2.0000      -0.329094        -8.9551
  76   2.0000      -0.319650        -8.6981
  77   0.0000       0.073187         1.9915
  78   0.0000       0.098150         2.6708
  79   0.0000       0.118858         3.2343
  80   0.0000       0.126803         3.4505
  81   0.0000       0.129284         3.5180

MULLIKEN ATOMIC CHARGES
-----------------------
   0 C :   -0.259670
   1 C :    0.018269
   2 O :   -0.350198
   3 C :    0.430222
   4 O :   -0.375752
   5 C :   -0.257743
   6 C :    0.163699
   7 C :   -0.274498
   8 N :   -0.126432
   9 C :    0.200137
  10 S :   -0.433176
  11 N :   -0.190274
  12 C :    0.037406
  13 C :    0.040520
  14 C :   -0.178272
  15 C :   -0.143810
  16 C :   -0.269226
  17 C :    0.306852
  18 O :   -0.354396
  19 C :   -0.254902
  20 H :    0.092619
  21 H :    0.089716
  22 H :    0.103718
  23 H :    0.103223
  24 H :    0.115610
  25 H :    0.121318
  26 H :    0.142060
  27 H :    0.095316
  28 H :    0.198317
  29 H :    0.191283
  30 H :    0.151331
  31 H :    0.148627
  32 H :    0.166435
  33 H :    0.135073
  34 H :    0.241818
  35 H :    0.174779
Sum of atomic charges:   -0.0000000

LOEWDIN ATOMIC CHARGES
----------------------
   0 C :    0.106037
   1 C :   -0.024211
   2 O :    0.294860
   3 C :   -0.424032
   4 O :    0.130035
   5 C :   -0.097197
   6 C :   -0.070872
   7 C :    0.129925
   8 N :    0.405497
   9 C :   -0.457814
  10 S :   -0.031309
  11 N :    0.396535
  12 C :   -0.051625
  13 C :   -0.041509
  14 C :    0.016860
  15 C :    0.042455
  16 C :    0.000101
  17 C :   -0.191446
  18 O :    0.397083
  19 C :    0.032390
  20 H :   -0.028940
  21 H :   -0.028426
  22 H :   -0.024187
  23 H :   -0.038227
  24 H :   -0.023549
  25 H :   -0.008350
  26 H :   -0.002652
  27 H :   -0.022080
  28 H :   -0.057383
  29 H :   -0.064630
  30 H :   -0.006505
  31 H :   -0.028223
  32 H :   -0.019288
  33 H :   -0.033755
  34 H :   -0.152276
  35 H :   -0.023293

  Mayer bond orders larger than 0.100000
B(  0-C ,  1-C ) :   0.9789 B(  0-C , 20-H ) :   0.9756 B(  0-C , 21-H ) :   0.9770
B(  0-C , 22-H ) :   0.9805 B(  1-C ,  2-O ) :   0.8775 B(  1-C , 23-H ) :   0.9595
B(  1-C , 24-H ) :   0.9794 B(  2-O ,  3-C ) :   1.1552 B(  3-C ,  4-O ) :   2.0840
B(  3-C ,  5-C ) :   0.9739 B(  5-C ,  6-C ) :   1.6819 B(  5-C , 12-C ) :   0.9668
B(  6-C ,  7-C ) :   0.9602 B(  6-C ,  8-N ) :   1.1381 B(  7-C , 25-H ) :   0.9711
B(  7-C , 26-H ) :   0.9560 B(  7-C , 27-H ) :   0.9854 B(  8-N ,  9-C ) :   1.1831
B(  8-N , 28-H ) :   0.9495 B(  9-C , 10-S ) :   1.6202 B(  9-C , 11-N ) :   1.2913
B( 11-N , 12-C ) :   0.9938 B( 11-N , 29-H ) :   0.9533 B( 12-C , 13-C ) :   0.9469
B( 12-C , 30-H ) :   1.0084 B( 13-C , 14-C ) :   1.3547 B( 13-C , 19-C ) :   1.3559
B( 14-C , 15-C ) :   1.3902 B( 14-C , 31-H ) :   0.9758 B( 15-C , 16-C ) :   1.3673
B( 15-C , 32-H ) :   0.9693 B( 16-C , 17-C ) :   1.3246 B( 16-C , 33-H ) :   0.9829
B( 17-C , 18-O ) :   1.1161 B( 17-C , 19-C ) :   1.3780 B( 18-O , 34-H ) :   0.9788
B( 19-C , 35-H ) :   0.9567

MP2 TOTAL ENERGY:    -1274.327786305 Eh
FINAL SINGLE POINT ENERGY     -1274.327786304809

DIPOLE MOMENT
-------------
                                X             Y             Z
Electronic contribution:     11.03171       8.16134       6.95069
Nuclear contribution   :    -12.27906      -9.72070      -6.52351
                        -----------------------------------------
Total Dipole Moment    :     -1.24735      -1.55936       0.42719
                        -----------------------------------------
Magnitude (a.u.)       :      2.04206
Magnitude (Debye)      :      5.19049

Rotational constants in cm-1:     0.011435     0.009697     0.006411
Rotational constants in MHz :   342.823671   290.706342   192.185128

                             ****ORCA TERMINATED NORMALLY****
TOTAL RUN TIME: 0 days 2 hours 44 minutes 31 seconds 424 msec
