                         Program Version 4.2.0 -  RELEASE  -
|  1> ! ri-mp2 cc-pvtz cc-pvtz/c TightSCF  NoKeepInts
|  2>
|  3> %scf
|  4>   MaxCore 4096
|  5> end
|  6> *xyz  0  1
|  7>     C       15.4683650   14.3959653   17.1080904
|  8>     C       15.5108267   15.2835740   15.8444978
|  9>     O       16.8263124   15.8097106   15.5410391
| 10>     C       17.8562899   15.7865038   16.4373279
| 11>     O       18.5297251   14.7823380   16.5902473
| 12>     C       17.9013864   16.9422868   17.3965363
| 13>     C       17.3702084   18.1690172   17.1545276
| 14>     C       16.6588133   18.6494180   15.9060640
| 15>     N       17.5422972   19.1959638   18.0885036
| 16>     C       18.3749541   19.1338858   19.1745976
| 17>     S       18.6349901   20.4442295   20.1493272
| 18>     N       18.9801694   17.9257652   19.4112002
| 19>     C       18.6601449   16.6722867   18.7020323
| 20>     C       17.8811462   15.7236417   19.6100936
| 21>     C       18.2650711   14.3745805   19.7230506
| 22>     C       17.5455850   13.4899157   20.5434515
| 23>     C       16.4310910   13.9569197   21.2603028
| 24>     C       16.0436585   15.2990378   21.1506119
| 25>     O       14.9617799   15.7509294   21.8333171
| 26>     C       16.7608348   16.1771586   20.3319153
| 27>     H       16.1841190   13.5668827   17.0362612
| 28>     H       14.4687782   13.9626389   17.2325587
| 29>     H       15.6895960   14.9763678   18.0098330
| 30>     H       15.1578588   14.6999569   14.9843283
| 31>     H       14.8093930   16.1154794   15.9830472
| 32>     H       15.6192617   18.3039760   15.8886016
| 33>     H       17.1574267   18.2807783   15.0007494
| 34>     H       16.6448020   19.7437000   15.8296530
| 35>     H       17.1107049   20.0924010   17.9291416
| 36>     H       19.5705161   17.8976568   20.2327452
| 37>     H       19.6129569   16.1884182   18.4416746
| 38>     H       19.1165785   14.0057298   19.1555151
| 39>     H       17.8505087   12.4473668   20.6155679
| 40>     H       15.8713751   13.2762801   21.8931839
| 41>     H       14.6386668   15.0201023   22.3815899
| 42>     H       16.4408081   17.2111371   20.2628155
| 43> *
| 44>
| 45>                          ****END OF INPUT****

CARTESIAN COORDINATES (ANGSTROEM)
---------------------------------
  C     15.468365   14.395965   17.108090
  C     15.510827   15.283574   15.844498
  O     16.826312   15.809711   15.541039
  C     17.856290   15.786504   16.437328
  O     18.529725   14.782338   16.590247
  C     17.901386   16.942287   17.396536
  C     17.370208   18.169017   17.154528
  C     16.658813   18.649418   15.906064
  N     17.542297   19.195964   18.088504
  C     18.374954   19.133886   19.174598
  S     18.634990   20.444229   20.149327
  N     18.980169   17.925765   19.411200
  C     18.660145   16.672287   18.702032
  C     17.881146   15.723642   19.610094
  C     18.265071   14.374581   19.723051
  C     17.545585   13.489916   20.543451
  C     16.431091   13.956920   21.260303
  C     16.043658   15.299038   21.150612
  O     14.961780   15.750929   21.833317
  C     16.760835   16.177159   20.331915
  H     16.184119   13.566883   17.036261
  H     14.468778   13.962639   17.232559
  H     15.689596   14.976368   18.009833
  H     15.157859   14.699957   14.984328
  H     14.809393   16.115479   15.983047
  H     15.619262   18.303976   15.888602
  H     17.157427   18.280778   15.000749
  H     16.644802   19.743700   15.829653
  H     17.110705   20.092401   17.929142
  H     19.570516   17.897657   20.232745
  H     19.612957   16.188418   18.441675
  H     19.116578   14.005730   19.155515
  H     17.850509   12.447367   20.615568
  H     15.871375   13.276280   21.893184
  H     14.638667   15.020102   22.381590
  H     16.440808   17.211137   20.262815

 Total Charge           Charge          ....    0
 Multiplicity           Mult            ....    1
 Number of Electrons    NEL             ....  154
 Basis Dimension        Dim             ....  828

ORBITAL ENERGIES
----------------

  NO   OCC          E(Eh)            E(eV)
   0   2.0000     -91.890607     -2500.4705
   1   2.0000     -20.595866      -560.4420
   2   2.0000     -20.583252      -560.0988
   3   2.0000     -20.552691      -559.2672
   4   2.0000     -15.631022      -425.3417
   5   2.0000     -15.609046      -424.7437
   6   2.0000     -11.396006      -310.1011
   7   2.0000     -11.385552      -309.8166
   8   2.0000     -11.339001      -308.5499
   9   2.0000     -11.312273      -307.8226
  10   2.0000     -11.308348      -307.7158
  11   2.0000     -11.307667      -307.6973
  12   2.0000     -11.262511      -306.4685
  13   2.0000     -11.262443      -306.4666
  14   2.0000     -11.257900      -306.3430
  15   2.0000     -11.252215      -306.1883
  16   2.0000     -11.241896      -305.9075
  17   2.0000     -11.237712      -305.7937
  18   2.0000     -11.233930      -305.6908
  19   2.0000     -11.226278      -305.4826
  20   2.0000      -8.895660      -242.0632
  21   2.0000      -6.577234      -178.9756
  22   2.0000      -6.575228      -178.9211
  23   2.0000      -6.574638      -178.9050
  24   2.0000      -1.445707       -39.3397
  25   2.0000      -1.415693       -38.5230
  26   2.0000      -1.355107       -36.8743
  27   2.0000      -1.342112       -36.5207
  28   2.0000      -1.239597       -33.7312
  29   2.0000      -1.156275       -31.4638
  30   2.0000      -1.121744       -30.5242
  31   2.0000      -1.044326       -28.4176
  32   2.0000      -1.032866       -28.1057
  33   2.0000      -1.014205       -27.5979
  34   2.0000      -1.001708       -27.2578
  35   2.0000      -0.986992       -26.8574
  36   2.0000      -0.925072       -25.1725
  37   2.0000      -0.895891       -24.3784
  38   2.0000      -0.851664       -23.1750
  39   2.0000      -0.839951       -22.8562
  40   2.0000      -0.832254       -22.6468
  41   2.0000      -0.822449       -22.3800
  42   2.0000      -0.743859       -20.2414
  43   2.0000      -0.728834       -19.8326
  44   2.0000      -0.727472       -19.7955
  45   2.0000      -0.693695       -18.8764
  46   2.0000      -0.686929       -18.6923
  47   2.0000      -0.678674       -18.4676
  48   2.0000      -0.675233       -18.3740
  49   2.0000      -0.663578       -18.0569
  50   2.0000      -0.650626       -17.7044
  51   2.0000      -0.648850       -17.6561
  52   2.0000      -0.636851       -17.3296
  53   2.0000      -0.626776       -17.0554
  54   2.0000      -0.605005       -16.4630
  55   2.0000      -0.603534       -16.4230
  56   2.0000      -0.599825       -16.3221
  57   2.0000      -0.579702       -15.7745
  58   2.0000      -0.574997       -15.6465
  59   2.0000      -0.564805       -15.3691
  60   2.0000      -0.553335       -15.0570
  61   2.0000      -0.545618       -14.8470
  62   2.0000      -0.538026       -14.6404
  63   2.0000      -0.530395       -14.4328
  64   2.0000      -0.519616       -14.1395
  65   2.0000      -0.512062       -13.9339
  66   2.0000      -0.500030       -13.6065
  67   2.0000      -0.492874       -13.4118
  68   2.0000      -0.483539       -13.1578
  69   2.0000      -0.467374       -12.7179
  70   2.0000      -0.456000       -12.4084
  71   2.0000      -0.449177       -12.2227
  72   2.0000      -0.357300        -9.7226
  73   2.0000      -0.347788        -9.4638
  74   2.0000      -0.329744        -8.9728
  75   2.0000      -0.320106        -8.7105
  76   2.0000      -0.317637        -8.6433
  77   0.0000       0.069934         1.9030
  78   0.0000       0.106971         2.9108
  79   0.0000       0.119690         3.2569
  80   0.0000       0.132271         3.5993
  81   0.0000       0.137330         3.7369

MULLIKEN ATOMIC CHARGES
-----------------------
   0 C :   -0.324827
   1 C :    0.051275
   2 O :   -0.387975
   3 C :    0.500281
   4 O :   -0.399119
   5 C :   -0.226404
   6 C :    0.145286
   7 C :   -0.302163
   8 N :   -0.122525
   9 C :    0.191041
  10 S :   -0.435575
  11 N :   -0.201129
  12 C :    0.048821
  13 C :    0.021550
  14 C :   -0.166990
  15 C :   -0.141519
  16 C :   -0.270666
  17 C :    0.307119
  18 O :   -0.359543
  19 C :   -0.255062
  20 H :    0.122634
  21 H :    0.110895
  22 H :    0.108995
  23 H :    0.114227
  24 H :    0.081836
  25 H :    0.120359
  26 H :    0.138542
  27 H :    0.111442
  28 H :    0.197586
  29 H :    0.194525
  30 H :    0.158358
  31 H :    0.164924
  32 H :    0.162157
  33 H :    0.131247
  34 H :    0.240553
  35 H :    0.169846
Sum of atomic charges:   -0.0000000

LOEWDIN ATOMIC CHARGES
----------------------
   0 C :    0.108745
   1 C :   -0.013177
   2 O :    0.281677
   3 C :   -0.420875
   4 O :    0.126574
   5 C :   -0.094662
   6 C :   -0.068707
   7 C :    0.127494
   8 N :    0.405199
   9 C :   -0.460212
  10 S :   -0.033704
  11 N :    0.397633
  12 C :   -0.045719
  13 C :   -0.042110
  14 C :    0.022546
  15 C :    0.042537
  16 C :   -0.001841
  17 C :   -0.194162
  18 O :    0.394339
  19 C :    0.026140
  20 H :   -0.021682
  21 H :   -0.023664
  22 H :   -0.028720
  23 H :   -0.023417
  24 H :   -0.037608
  25 H :   -0.014529
  26 H :   -0.005795
  27 H :   -0.018352
  28 H :   -0.058420
  29 H :   -0.063618
  30 H :   -0.003446
  31 H :   -0.023862
  32 H :   -0.020003
  33 H :   -0.035528
  34 H :   -0.154008
  35 H :   -0.025063

  Mayer bond orders larger than 0.100000
B(  0-C ,  1-C ) :   0.9684 B(  0-C , 20-H ) :   0.9687 B(  0-C , 21-H ) :   0.9750
B(  0-C , 22-H ) :   0.9674 B(  1-C ,  2-O ) :   0.8982 B(  1-C , 23-H ) :   0.9819
B(  1-C , 24-H ) :   0.9757 B(  2-O ,  3-C ) :   1.0911 B(  3-C ,  4-O ) :   2.0372
B(  3-C ,  5-C ) :   1.0205 B(  5-C ,  6-C ) :   1.6599 B(  5-C , 12-C ) :   0.9584
B(  6-C ,  7-C ) :   0.9497 B(  6-C ,  8-N ) :   1.1414 B(  7-C , 25-H ) :   0.9678
B(  7-C , 26-H ) :   0.9648 B(  7-C , 27-H ) :   0.9885 B(  8-N ,  9-C ) :   1.1796
B(  8-N , 28-H ) :   0.9492 B(  9-C , 10-S ) :   1.6157 B(  9-C , 11-N ) :   1.3009
B( 11-N , 12-C ) :   0.9887 B( 11-N , 29-H ) :   0.9520 B( 12-C , 13-C ) :   0.9473
B( 12-C , 30-H ) :   0.9990 B( 13-C , 14-C ) :   1.3865 B( 13-C , 19-C ) :   1.3569
B( 14-C , 15-C ) :   1.3952 B( 14-C , 31-H ) :   0.9597 B( 15-C , 16-C ) :   1.3625
B( 15-C , 32-H ) :   0.9705 B( 16-C , 17-C ) :   1.3314 B( 16-C , 33-H ) :   0.9846
B( 17-C , 18-O ) :   1.1113 B( 17-C , 19-C ) :   1.3730 B( 18-O , 34-H ) :   0.9801
B( 19-C , 35-H ) :   0.9592

MP2 TOTAL ENERGY:    -1274.329636949 Eh
FINAL SINGLE POINT ENERGY     -1274.329636948904

DIPOLE MOMENT
-------------
                                X             Y             Z
Electronic contribution:      9.54833       8.89218       6.63250
Nuclear contribution   :    -11.04935     -10.00055      -7.25417
                        -----------------------------------------
Total Dipole Moment    :     -1.50102      -1.10837      -0.62166
                        -----------------------------------------
Magnitude (a.u.)       :      1.96672
Magnitude (Debye)      :      4.99902

Rotational constants in cm-1:     0.011489     0.009732     0.006630
Rotational constants in MHz :   344.422973   291.753948   198.765462

                             ****ORCA TERMINATED NORMALLY****
TOTAL RUN TIME: 0 days 2 hours 15 minutes 37 seconds 620 msec
