                         Program Version 4.2.0 -  RELEASE  -
|  1> ! ri-mp2 cc-pvtz cc-pvtz/c TightSCF  NoKeepInts
|  2>
|  3> %scf
|  4>   MaxCore 4096
|  5> end
|  6> *xyz  0  1
|  7>     C       14.9855394   14.1355949   15.8740237
|  8>     C       16.1312121   14.1771544   16.9061818
|  9>     O       17.1745593   15.1022629   16.5239414
| 10>     C       16.9267105   16.4405822   16.3826965
| 11>     O       16.0849623   16.8683715   15.6134425
| 12>     C       17.6157887   17.2763319   17.4290150
| 13>     C       17.4513417   18.6222282   17.5081084
| 14>     C       16.5765794   19.4951712   16.6335337
| 15>     N       18.1648769   19.3617756   18.4562244
| 16>     C       19.1536120   18.8589222   19.2587402
| 17>     S       20.0362659   19.8242716   20.2710350
| 18>     N       19.3816183   17.5094543   19.1739280
| 19>     C       18.5499980   16.5561355   18.4176441
| 20>     C       17.7917394   15.6639579   19.3955345
| 21>     C       18.1871470   14.3268395   19.5889561
| 22>     C       17.4880645   13.4965819   20.4811282
| 23>     C       16.3882612   14.0086800   21.1903824
| 24>     C       15.9983772   15.3425884   21.0084224
| 25>     O       14.9384260   15.8406865   21.6930486
| 26>     C       16.6943937   16.1657965   20.1179638
| 27>     H       14.3567387   15.0318579   15.9398159
| 28>     H       14.3419661   13.2662316   16.0538695
| 29>     H       15.3832085   14.0623239   14.8540207
| 30>     H       15.7241866   14.4471638   17.8894649
| 31>     H       16.5675832   13.1738345   16.9915400
| 32>     H       15.5248280   19.1926356   16.7165692
| 33>     H       16.8628612   19.3947768   15.5787669
| 34>     H       16.6360688   20.5589756   16.8915497
| 35>     H       18.0149433   20.3556109   18.5266007
| 36>     H       20.0957157   17.1632094   19.8016279
| 37>     H       19.2293883   15.9240017   17.8284050
| 38>     H       19.0363491   13.9278796   19.0401877
| 39>     H       17.8008088   12.4633420   20.6232976
| 40>     H       15.8464289   13.3719962   21.8823100
| 41>     H       14.6255725   15.1474997   22.2937489
| 42>     H       16.3808790   17.1972738   19.9982744
| 43> *
| 44>
| 45>                          ****END OF INPUT****

CARTESIAN COORDINATES (ANGSTROEM)
---------------------------------
  C     14.985539   14.135595   15.874024
  C     16.131212   14.177154   16.906182
  O     17.174559   15.102263   16.523941
  C     16.926710   16.440582   16.382697
  O     16.084962   16.868371   15.613442
  C     17.615789   17.276332   17.429015
  C     17.451342   18.622228   17.508108
  C     16.576579   19.495171   16.633534
  N     18.164877   19.361776   18.456224
  C     19.153612   18.858922   19.258740
  S     20.036266   19.824272   20.271035
  N     19.381618   17.509454   19.173928
  C     18.549998   16.556135   18.417644
  C     17.791739   15.663958   19.395535
  C     18.187147   14.326840   19.588956
  C     17.488064   13.496582   20.481128
  C     16.388261   14.008680   21.190382
  C     15.998377   15.342588   21.008422
  O     14.938426   15.840687   21.693049
  C     16.694394   16.165796   20.117964
  H     14.356739   15.031858   15.939816
  H     14.341966   13.266232   16.053870
  H     15.383209   14.062324   14.854021
  H     15.724187   14.447164   17.889465
  H     16.567583   13.173834   16.991540
  H     15.524828   19.192636   16.716569
  H     16.862861   19.394777   15.578767
  H     16.636069   20.558976   16.891550
  H     18.014943   20.355611   18.526601
  H     20.095716   17.163209   19.801628
  H     19.229388   15.924002   17.828405
  H     19.036349   13.927880   19.040188
  H     17.800809   12.463342   20.623298
  H     15.846429   13.371996   21.882310
  H     14.625573   15.147500   22.293749
  H     16.380879   17.197274   19.998274

 Total Charge           Charge          ....    0
 Multiplicity           Mult            ....    1
 Number of Electrons    NEL             ....  154
 Basis Dimension        Dim             ....  828

ORBITAL ENERGIES
----------------

  NO   OCC          E(Eh)            E(eV)
   0   2.0000     -91.889885     -2500.4509
   1   2.0000     -20.600964      -560.5807
   2   2.0000     -20.585785      -560.1677
   3   2.0000     -20.545705      -559.0771
   4   2.0000     -15.630257      -425.3209
   5   2.0000     -15.609171      -424.7471
   6   2.0000     -11.394772      -310.0675
   7   2.0000     -11.384795      -309.7960
   8   2.0000     -11.336904      -308.4929
   9   2.0000     -11.318766      -307.9993
  10   2.0000     -11.310450      -307.7730
  11   2.0000     -11.297549      -307.4219
  12   2.0000     -11.263411      -306.4930
  13   2.0000     -11.259985      -306.3998
  14   2.0000     -11.258684      -306.3644
  15   2.0000     -11.253001      -306.2097
  16   2.0000     -11.247651      -306.0641
  17   2.0000     -11.242457      -305.9228
  18   2.0000     -11.242063      -305.9121
  19   2.0000     -11.216823      -305.2253
  20   2.0000      -8.894939      -242.0436
  21   2.0000      -6.576512      -178.9560
  22   2.0000      -6.574509      -178.9015
  23   2.0000      -6.573920      -178.8855
  24   2.0000      -1.444320       -39.3019
  25   2.0000      -1.420648       -38.6578
  26   2.0000      -1.353364       -36.8269
  27   2.0000      -1.341353       -36.5001
  28   2.0000      -1.239901       -33.7394
  29   2.0000      -1.161488       -31.6057
  30   2.0000      -1.120959       -30.5028
  31   2.0000      -1.045381       -28.4463
  32   2.0000      -1.030957       -28.0538
  33   2.0000      -1.019648       -27.7460
  34   2.0000      -0.996536       -27.1171
  35   2.0000      -0.984867       -26.7996
  36   2.0000      -0.924577       -25.1590
  37   2.0000      -0.887971       -24.1629
  38   2.0000      -0.848934       -23.1007
  39   2.0000      -0.841743       -22.9050
  40   2.0000      -0.837967       -22.8022
  41   2.0000      -0.823883       -22.4190
  42   2.0000      -0.750246       -20.4152
  43   2.0000      -0.734293       -19.9811
  44   2.0000      -0.718703       -19.5569
  45   2.0000      -0.699606       -19.0372
  46   2.0000      -0.690158       -18.7802
  47   2.0000      -0.678972       -18.4758
  48   2.0000      -0.668713       -18.1966
  49   2.0000      -0.660299       -17.9677
  50   2.0000      -0.650312       -17.6959
  51   2.0000      -0.647072       -17.6077
  52   2.0000      -0.637374       -17.3438
  53   2.0000      -0.611351       -16.6357
  54   2.0000      -0.605422       -16.4744
  55   2.0000      -0.600982       -16.3535
  56   2.0000      -0.596455       -16.2304
  57   2.0000      -0.581163       -15.8143
  58   2.0000      -0.573912       -15.6169
  59   2.0000      -0.571036       -15.5387
  60   2.0000      -0.563092       -15.3225
  61   2.0000      -0.539841       -14.6898
  62   2.0000      -0.534641       -14.5483
  63   2.0000      -0.527967       -14.3667
  64   2.0000      -0.519881       -14.1467
  65   2.0000      -0.514806       -14.0086
  66   2.0000      -0.503477       -13.7003
  67   2.0000      -0.496471       -13.5097
  68   2.0000      -0.483100       -13.1458
  69   2.0000      -0.463460       -12.6114
  70   2.0000      -0.454820       -12.3763
  71   2.0000      -0.440369       -11.9830
  72   2.0000      -0.355830        -9.6826
  73   2.0000      -0.353519        -9.6198
  74   2.0000      -0.329909        -8.9773
  75   2.0000      -0.325916        -8.8686
  76   2.0000      -0.317285        -8.6338
  77   0.0000       0.071473         1.9449
  78   0.0000       0.101589         2.7644
  79   0.0000       0.123252         3.3539
  80   0.0000       0.129777         3.5314
  81   0.0000       0.134316         3.6549

MULLIKEN ATOMIC CHARGES
-----------------------
   0 C :   -0.272252
   1 C :    0.032032
   2 O :   -0.388149
   3 C :    0.493211
   4 O :   -0.415575
   5 C :   -0.262241
   6 C :    0.162010
   7 C :   -0.269579
   8 N :   -0.123736
   9 C :    0.213985
  10 S :   -0.439297
  11 N :   -0.205950
  12 C :    0.067588
  13 C :    0.015726
  14 C :   -0.156524
  15 C :   -0.133995
  16 C :   -0.277097
  17 C :    0.309716
  18 O :   -0.356172
  19 C :   -0.251641
  20 H :    0.106288
  21 H :    0.090974
  22 H :    0.102404
  23 H :    0.099584
  24 H :    0.103287
  25 H :    0.130147
  26 H :    0.132870
  27 H :    0.095298
  28 H :    0.197787
  29 H :    0.194478
  30 H :    0.150325
  31 H :    0.148651
  32 H :    0.162982
  33 H :    0.133183
  34 H :    0.241617
  35 H :    0.168064
Sum of atomic charges:    0.0000000

LOEWDIN ATOMIC CHARGES
----------------------
   0 C :    0.104128
   1 C :   -0.018363
   2 O :    0.285726
   3 C :   -0.413703
   4 O :    0.118083
   5 C :   -0.097902
   6 C :   -0.058039
   7 C :    0.131182
   8 N :    0.406916
   9 C :   -0.456256
  10 S :   -0.034649
  11 N :    0.396298
  12 C :   -0.052740
  13 C :   -0.038190
  14 C :    0.015472
  15 C :    0.041141
  16 C :   -0.002144
  17 C :   -0.190808
  18 O :    0.396483
  19 C :    0.029493
  20 H :   -0.028676
  21 H :   -0.030304
  22 H :   -0.023998
  23 H :   -0.030588
  24 H :   -0.023934
  25 H :   -0.005256
  26 H :   -0.003434
  27 H :   -0.023321
  28 H :   -0.057423
  29 H :   -0.064964
  30 H :   -0.009097
  31 H :   -0.029370
  32 H :   -0.020203
  33 H :   -0.034680
  34 H :   -0.152863
  35 H :   -0.024020

  Mayer bond orders larger than 0.100000
B(  0-C ,  1-C ) :   0.9841 B(  0-C , 20-H ) :   0.9724 B(  0-C , 21-H ) :   0.9763
B(  0-C , 22-H ) :   0.9769 B(  1-C ,  2-O ) :   0.8863 B(  1-C , 23-H ) :   0.9672
B(  1-C , 24-H ) :   0.9813 B(  2-O ,  3-C ) :   1.0889 B(  3-C ,  4-O ) :   2.0003
B(  3-C ,  5-C ) :   1.0783 B(  5-C ,  6-C ) :   1.6488 B(  5-C , 12-C ) :   0.9709
B(  6-C ,  7-C ) :   0.9668 B(  6-C ,  8-N ) :   1.1603 B(  7-C , 25-H ) :   0.9606
B(  7-C , 26-H ) :   0.9593 B(  7-C , 27-H ) :   0.9906 B(  8-N ,  9-C ) :   1.1821
B(  8-N , 28-H ) :   0.9476 B(  9-C , 10-S ) :   1.6070 B(  9-C , 11-N ) :   1.3068
B( 11-N , 12-C ) :   0.9744 B( 11-N , 29-H ) :   0.9523 B( 12-C , 13-C ) :   0.9413
B( 12-C , 30-H ) :   1.0009 B( 13-C , 14-C ) :   1.3536 B( 13-C , 19-C ) :   1.3800
B( 14-C , 15-C ) :   1.3906 B( 14-C , 31-H ) :   0.9752 B( 15-C , 16-C ) :   1.3638
B( 15-C , 32-H ) :   0.9702 B( 16-C , 17-C ) :   1.3294 B( 16-C , 33-H ) :   0.9841
B( 17-C , 18-O ) :   1.1138 B( 17-C , 19-C ) :   1.3714 B( 18-O , 34-H ) :   0.9790
B( 19-C , 35-H ) :   0.9577

MP2 TOTAL ENERGY:    -1274.334823746 Eh
FINAL SINGLE POINT ENERGY     -1274.334823745604

DIPOLE MOMENT
-------------
                                X             Y             Z
Electronic contribution:     10.50786       9.66066       7.39080
Nuclear contribution   :    -11.50269     -11.26839      -7.32103
                        -----------------------------------------
Total Dipole Moment    :     -0.99484      -1.60772       0.06977
                        -----------------------------------------
Magnitude (a.u.)       :      1.89191
Magnitude (Debye)      :      4.80886

Rotational constants in cm-1:     0.012154     0.008850     0.006308
Rotational constants in MHz :   364.372363   265.304100   189.105817

                             ****ORCA TERMINATED NORMALLY****
TOTAL RUN TIME: 0 days 1 hours 50 minutes 1 seconds 445 msec
