                         Program Version 5.0.0 -  RELEASE  -
|  1> ! ri-mp2 cc-pvtz cc-pvtz/c TightSCF NoKeepInts
|  2>
|  3> %scf
|  4>   MaxCore 4096
|  5> end
|  6> *xyz  0  1
|  7>     C       15.4000047   14.0733480   14.9947628
|  8>     C       15.6492394   14.1295700   16.5169813
|  9>     O       16.6742713   15.0951578   16.8229169
| 10>     C       16.4355054   16.4408985   16.7387095
| 11>     O       15.4488320   16.9034095   16.1923501
| 12>     C       17.3861696   17.2447247   17.5836129
| 13>     C       17.3449211   18.6006409   17.6361891
| 14>     C       16.3908045   19.5187915   16.9023903
| 15>     N       18.2812888   19.3016128   18.4022066
| 16>     C       19.3504926   18.7354822   19.0435291
| 17>     S       20.4745385   19.6478582   19.8435611
| 18>     N       19.4452446   17.3685638   18.9847933
| 19>     C       18.4251555   16.4709323   18.4126193
| 20>     C       17.7735987   15.6571022   19.5274286
| 21>     C       17.9839543   14.2678476   19.6126373
| 22>     C       17.3840533   13.5151824   20.6362809
| 23>     C       16.5693624   14.1568563   21.5846932
| 24>     C       16.3614215   15.5407532   21.5055853
| 25>     O       15.5765413   16.1633386   22.4206805
| 26>     C       16.9594691   16.2870201   20.4855489
| 27>     H       14.9274314   14.9919299   14.6272326
| 28>     H       14.7336311   13.2375174   14.7501154
| 29>     H       16.3426135   13.9276810   14.4531024
| 30>     H       14.7185073   14.3782867   17.0447728
| 31>     H       15.9785844   13.1404415   16.8598984
| 32>     H       15.3575419   19.3350386   17.2239073
| 33>     H       16.4337346   19.3370407   15.8210207
| 34>     H       16.6054399   20.5811881   17.0667925
| 35>     H       18.2279497   20.3062920   18.4551845
| 36>     H       20.2236246   16.9773525   19.4994472
| 37>     H       18.9437713   15.7785779   17.7346604
| 38>     H       18.6098388   13.7687581   18.8777513
| 39>     H       17.5515918   12.4410579   20.6928547
| 40>     H       16.1044111   13.5802256   22.3775258
| 41>     H       15.2818149   15.4936405   23.0557947
| 42>     H       16.7916448   17.3578810   20.4464621
| 43> *
| 44>
| 45>                          ****END OF INPUT****

CARTESIAN COORDINATES (ANGSTROEM)
---------------------------------
  C     15.400005   14.073348   14.994763
  C     15.649239   14.129570   16.516981
  O     16.674271   15.095158   16.822917
  C     16.435505   16.440898   16.738709
  O     15.448832   16.903409   16.192350
  C     17.386170   17.244725   17.583613
  C     17.344921   18.600641   17.636189
  C     16.390805   19.518791   16.902390
  N     18.281289   19.301613   18.402207
  C     19.350493   18.735482   19.043529
  S     20.474539   19.647858   19.843561
  N     19.445245   17.368564   18.984793
  C     18.425155   16.470932   18.412619
  C     17.773599   15.657102   19.527429
  C     17.983954   14.267848   19.612637
  C     17.384053   13.515182   20.636281
  C     16.569362   14.156856   21.584693
  C     16.361421   15.540753   21.505585
  O     15.576541   16.163339   22.420680
  C     16.959469   16.287020   20.485549
  H     14.927431   14.991930   14.627233
  H     14.733631   13.237517   14.750115
  H     16.342613   13.927681   14.453102
  H     14.718507   14.378287   17.044773
  H     15.978584   13.140441   16.859898
  H     15.357542   19.335039   17.223907
  H     16.433735   19.337041   15.821021
  H     16.605440   20.581188   17.066792
  H     18.227950   20.306292   18.455184
  H     20.223625   16.977352   19.499447
  H     18.943771   15.778578   17.734660
  H     18.609839   13.768758   18.877751
  H     17.551592   12.441058   20.692855
  H     16.104411   13.580226   22.377526
  H     15.281815   15.493640   23.055795
  H     16.791645   17.357881   20.446462

 Total Charge           Charge          ....    0
 Multiplicity           Mult            ....    1
 Number of Electrons    NEL             ....  154
 Basis Dimension        Dim             ....  828

ORBITAL ENERGIES
----------------

  NO   OCC          E(Eh)            E(eV)
   0   2.0000     -91.888533     -2500.4141
   1   2.0000     -20.599949      -560.5531
   2   2.0000     -20.595722      -560.4381
   3   2.0000     -20.542883      -559.0003
   4   2.0000     -15.628747      -425.2798
   5   2.0000     -15.607776      -424.7092
   6   2.0000     -11.396329      -310.1099
   7   2.0000     -11.383583      -309.7630
   8   2.0000     -11.335502      -308.4547
   9   2.0000     -11.312790      -307.8367
  10   2.0000     -11.308528      -307.7207
  11   2.0000     -11.299287      -307.4692
  12   2.0000     -11.258858      -306.3691
  13   2.0000     -11.258758      -306.3664
  14   2.0000     -11.254314      -306.2454
  15   2.0000     -11.251980      -306.1819
  16   2.0000     -11.242000      -305.9104
  17   2.0000     -11.237409      -305.7854
  18   2.0000     -11.237221      -305.7803
  19   2.0000     -11.221232      -305.3453
  20   2.0000      -8.893595      -242.0070
  21   2.0000      -6.575170      -178.9195
  22   2.0000      -6.573166      -178.8649
  23   2.0000      -6.572579      -178.8490
  24   2.0000      -1.449930       -39.4546
  25   2.0000      -1.415362       -38.5140
  26   2.0000      -1.355451       -36.8837
  27   2.0000      -1.339717       -36.4556
  28   2.0000      -1.238097       -33.6903
  29   2.0000      -1.156639       -31.4738
  30   2.0000      -1.119782       -30.4708
  31   2.0000      -1.041991       -28.3540
  32   2.0000      -1.035425       -28.1754
  33   2.0000      -1.014090       -27.5948
  34   2.0000      -0.994733       -27.0681
  35   2.0000      -0.983341       -26.7581
  36   2.0000      -0.921989       -25.0886
  37   2.0000      -0.893609       -24.3163
  38   2.0000      -0.846823       -23.0432
  39   2.0000      -0.837206       -22.7815
  40   2.0000      -0.833107       -22.6700
  41   2.0000      -0.818726       -22.2787
  42   2.0000      -0.754525       -20.5317
  43   2.0000      -0.731035       -19.8925
  44   2.0000      -0.722055       -19.6481
  45   2.0000      -0.694928       -18.9099
  46   2.0000      -0.688057       -18.7230
  47   2.0000      -0.680595       -18.5199
  48   2.0000      -0.670016       -18.2321
  49   2.0000      -0.652456       -17.7542
  50   2.0000      -0.648790       -17.6545
  51   2.0000      -0.645156       -17.5556
  52   2.0000      -0.631638       -17.1878
  53   2.0000      -0.608915       -16.5694
  54   2.0000      -0.605774       -16.4839
  55   2.0000      -0.598764       -16.2932
  56   2.0000      -0.598068       -16.2743
  57   2.0000      -0.580045       -15.7838
  58   2.0000      -0.572731       -15.5848
  59   2.0000      -0.570531       -15.5249
  60   2.0000      -0.562675       -15.3112
  61   2.0000      -0.538577       -14.6554
  62   2.0000      -0.536519       -14.5994
  63   2.0000      -0.524306       -14.2671
  64   2.0000      -0.521560       -14.1924
  65   2.0000      -0.512949       -13.9581
  66   2.0000      -0.500980       -13.6324
  67   2.0000      -0.498781       -13.5725
  68   2.0000      -0.484969       -13.1967
  69   2.0000      -0.463731       -12.6188
  70   2.0000      -0.455848       -12.4042
  71   2.0000      -0.444323       -12.0906
  72   2.0000      -0.353905        -9.6302
  73   2.0000      -0.348475        -9.4825
  74   2.0000      -0.327861        -8.9216
  75   2.0000      -0.320414        -8.7189
  76   2.0000      -0.315574        -8.5872
  77   0.0000       0.076058         2.0697
  78   0.0000       0.107731         2.9315
  79   0.0000       0.125334         3.4105
  80   0.0000       0.132977         3.6185
  81   0.0000       0.137666         3.7461

MULLIKEN ATOMIC CHARGES
-----------------------
   0 C :   -0.294084
   1 C :    0.045633
   2 O :   -0.357006
   3 C :    0.462174
   4 O :   -0.435452
   5 C :   -0.205977
   6 C :    0.148516
   7 C :   -0.274787
   8 N :   -0.120250
   9 C :    0.211411
  10 S :   -0.440309
  11 N :   -0.203627
  12 C :    0.051097
  13 C :    0.070093
  14 C :   -0.184866
  15 C :   -0.130999
  16 C :   -0.278943
  17 C :    0.315592
  18 O :   -0.356756
  19 C :   -0.269677
  20 H :    0.124242
  21 H :    0.093856
  22 H :    0.090357
  23 H :    0.093262
  24 H :    0.105092
  25 H :    0.132876
  26 H :    0.129258
  27 H :    0.095420
  28 H :    0.197195
  29 H :    0.194321
  30 H :    0.149678
  31 H :    0.148266
  32 H :    0.159841
  33 H :    0.129476
  34 H :    0.240585
  35 H :    0.164491
Sum of atomic charges:    0.0000000

LOEWDIN ATOMIC CHARGES
----------------------
   0 C :    0.104870
   1 C :   -0.013669
   2 O :    0.303388
   3 C :   -0.412129
   4 O :    0.101390
   5 C :   -0.093745
   6 C :   -0.059253
   7 C :    0.131104
   8 N :    0.406479
   9 C :   -0.456613
  10 S :   -0.035729
  11 N :    0.396426
  12 C :   -0.052531
  13 C :   -0.038001
  14 C :    0.013983
  15 C :    0.038647
  16 C :   -0.002055
  17 C :   -0.189452
  18 O :    0.395096
  19 C :    0.031332
  20 H :   -0.026185
  21 H :   -0.028557
  22 H :   -0.030112
  23 H :   -0.028023
  24 H :   -0.025221
  25 H :   -0.004599
  26 H :   -0.004437
  27 H :   -0.023385
  28 H :   -0.057648
  29 H :   -0.064676
  30 H :   -0.010807
  31 H :   -0.030485
  32 H :   -0.021620
  33 H :   -0.035800
  34 H :   -0.154059
  35 H :   -0.023924

  Mayer bond orders larger than 0.100000
B(  0-C ,  1-C ) :   0.9729 B(  0-C , 20-H ) :   0.9724 B(  0-C , 21-H ) :   0.9779
B(  0-C , 22-H ) :   0.9756 B(  1-C ,  2-O ) :   0.8964 B(  1-C , 23-H ) :   0.9749
B(  1-C , 24-H ) :   0.9831 B(  2-O ,  3-C ) :   1.1540 B(  3-C ,  4-O ) :   1.9544
B(  3-C ,  5-C ) :   1.0620 B(  5-C ,  6-C ) :   1.6565 B(  5-C , 12-C ) :   0.9739
B(  6-C ,  7-C ) :   0.9676 B(  6-C ,  8-N ) :   1.1632 B(  7-C , 25-H ) :   0.9598
B(  7-C , 26-H ) :   0.9609 B(  7-C , 27-H ) :   0.9909 B(  8-N ,  9-C ) :   1.1826
B(  8-N , 28-H ) :   0.9480 B(  9-C , 10-S ) :   1.6071 B(  9-C , 11-N ) :   1.3052
B( 11-N , 12-C ) :   0.9861 B( 11-N , 29-H ) :   0.9518 B( 12-C , 13-C ) :   0.9364
B( 12-C , 30-H ) :   1.0026 B( 13-C , 14-C ) :   1.3552 B( 13-C , 19-C ) :   1.3831
B( 14-C , 15-C ) :   1.3919 B( 14-C , 31-H ) :   0.9719 B( 15-C , 16-C ) :   1.3643
B( 15-C , 32-H ) :   0.9708 B( 16-C , 17-C ) :   1.3317 B( 16-C , 33-H ) :   0.9852
B( 17-C , 18-O ) :   1.1100 B( 17-C , 19-C ) :   1.3731 B( 18-O , 34-H ) :   0.9800
B( 19-C , 35-H ) :   0.9583

MP2 TOTAL ENERGY:    -1274.346510549 Eh
FINAL SINGLE POINT ENERGY     -1274.346510548537

DIPOLE MOMENT
-------------
                                X             Y             Z
Electronic contribution:     10.16463       9.54600       9.73261
Nuclear contribution   :    -11.28141     -11.19730     -10.04300
                        -----------------------------------------
Total Dipole Moment    :     -1.11678      -1.65130      -0.31039
                        -----------------------------------------
Magnitude (a.u.)       :      2.01751
Magnitude (Debye)      :      5.12809

Rotational constants in cm-1:     0.011110     0.008796     0.006033
Rotational constants in MHz :   333.069302   263.708689   180.873265

                             ****ORCA TERMINATED NORMALLY****
TOTAL RUN TIME: 0 days 1 hours 29 minutes 48 seconds 384 msec
