                         Program Version 4.2.0 -  RELEASE  -
|  1> ! ri-mp2 cc-pvtz cc-pvtz/c TightSCF  NoKeepInts
|  2>
|  3> %scf
|  4>   MaxCore 4096
|  5> end
|  6> *xyz  0  1
|  7>     C       14.7719030   14.0544424   16.0081643
|  8>     C       15.5081418   15.0928492   16.8701795
|  9>     O       16.5305385   15.6866925   16.0510612
| 10>     C       17.7916061   15.7187650   16.5641259
| 11>     O       18.3946075   14.6796917   16.7698567
| 12>     C       18.0076858   16.9259684   17.4241582
| 13>     C       17.5451655   18.1605358   17.1078109
| 14>     C       16.7902398   18.5616270   15.8579593
| 15>     N       17.8199329   19.2424130   17.9493820
| 16>     C       18.6489744   19.1925421   19.0397001
| 17>     S       19.0063891   20.5438014   19.9235529
| 18>     N       19.1660080   17.9623235   19.3624022
| 19>     C       18.7866999   16.6890879   18.7201084
| 20>     C       17.9715807   15.8244093   19.6779253
| 21>     C       18.3611614   14.5004036   19.9509377
| 22>     C       17.5996068   13.6925978   20.8118513
| 23>     C       16.4362734   14.2117194   21.4049295
| 24>     C       16.0422184   15.5285102   21.1323536
| 25>     O       14.9127312   16.0293082   21.6927789
| 26>     C       16.8017031   16.3298630   20.2743100
| 27>     H       15.4679953   13.2777718   15.6664236
| 28>     H       14.3226504   14.5292326   15.1272054
| 29>     H       13.9742910   13.5706196   16.5847252
| 30>     H       14.8090030   15.8624666   17.2217439
| 31>     H       15.9406981   14.5915602   17.7483405
| 32>     H       17.1904431   18.0487632   14.9742256
| 33>     H       16.8550971   19.6382748   15.6583731
| 34>     H       15.7287219   18.2986844   15.9443232
| 35>     H       17.4519610   20.1540955   17.7281401
| 36>     H       19.7515750   17.9497422   20.1877403
| 37>     H       19.7114004   16.1510509   18.4652873
| 38>     H       19.2488227   14.0893547   19.4757600
| 39>     H       17.9091566   12.6677625   21.0096223
| 40>     H       15.8439251   13.5898734   22.0680186
| 41>     H       14.5686789   15.3583185   22.3017667
| 42>     H       16.4794130   17.3468778   20.0787563
| 43> *
| 44>
| 45>                          ****END OF INPUT****

CARTESIAN COORDINATES (ANGSTROEM)
---------------------------------
  C     14.771903   14.054442   16.008164
  C     15.508142   15.092849   16.870179
  O     16.530538   15.686692   16.051061
  C     17.791606   15.718765   16.564126
  O     18.394607   14.679692   16.769857
  C     18.007686   16.925968   17.424158
  C     17.545165   18.160536   17.107811
  C     16.790240   18.561627   15.857959
  N     17.819933   19.242413   17.949382
  C     18.648974   19.192542   19.039700
  S     19.006389   20.543801   19.923553
  N     19.166008   17.962324   19.362402
  C     18.786700   16.689088   18.720108
  C     17.971581   15.824409   19.677925
  C     18.361161   14.500404   19.950938
  C     17.599607   13.692598   20.811851
  C     16.436273   14.211719   21.404930
  C     16.042218   15.528510   21.132354
  O     14.912731   16.029308   21.692779
  C     16.801703   16.329863   20.274310
  H     15.467995   13.277772   15.666424
  H     14.322650   14.529233   15.127205
  H     13.974291   13.570620   16.584725
  H     14.809003   15.862467   17.221744
  H     15.940698   14.591560   17.748341
  H     17.190443   18.048763   14.974226
  H     16.855097   19.638275   15.658373
  H     15.728722   18.298684   15.944323
  H     17.451961   20.154096   17.728140
  H     19.751575   17.949742   20.187740
  H     19.711400   16.151051   18.465287
  H     19.248823   14.089355   19.475760
  H     17.909157   12.667763   21.009622
  H     15.843925   13.589873   22.068019
  H     14.568679   15.358318   22.301767
  H     16.479413   17.346878   20.078756

 Total Charge           Charge          ....    0
 Multiplicity           Mult            ....    1
 Number of Electrons    NEL             ....  154
 Basis Dimension        Dim             ....  828

ORBITAL ENERGIES
----------------

  NO   OCC          E(Eh)            E(eV)
   0   2.0000     -91.889692     -2500.4456
   1   2.0000     -20.597398      -560.4837
   2   2.0000     -20.580685      -560.0289
   3   2.0000     -20.557453      -559.3967
   4   2.0000     -15.629322      -425.2955
   5   2.0000     -15.609272      -424.7499
   6   2.0000     -11.394282      -310.0542
   7   2.0000     -11.385290      -309.8095
   8   2.0000     -11.333869      -308.4103
   9   2.0000     -11.313712      -307.8618
  10   2.0000     -11.309712      -307.7529
  11   2.0000     -11.299078      -307.4635
  12   2.0000     -11.261647      -306.4450
  13   2.0000     -11.259805      -306.3949
  14   2.0000     -11.259092      -306.3755
  15   2.0000     -11.253895      -306.2341
  16   2.0000     -11.243604      -305.9540
  17   2.0000     -11.239230      -305.8350
  18   2.0000     -11.236576      -305.7628
  19   2.0000     -11.225572      -305.4633
  20   2.0000      -8.894766      -242.0389
  21   2.0000      -6.576343      -178.9514
  22   2.0000      -6.574334      -178.8967
  23   2.0000      -6.573748      -178.8808
  24   2.0000      -1.452772       -39.5319
  25   2.0000      -1.417193       -38.5638
  26   2.0000      -1.356994       -36.9257
  27   2.0000      -1.340409       -36.4744
  28   2.0000      -1.238734       -33.7077
  29   2.0000      -1.157907       -31.5083
  30   2.0000      -1.122336       -30.5403
  31   2.0000      -1.045792       -28.4574
  32   2.0000      -1.032741       -28.1023
  33   2.0000      -1.015317       -27.6282
  34   2.0000      -1.000366       -27.2214
  35   2.0000      -0.985685       -26.8218
  36   2.0000      -0.924527       -25.1577
  37   2.0000      -0.878687       -23.9103
  38   2.0000      -0.850282       -23.1373
  39   2.0000      -0.840477       -22.8705
  40   2.0000      -0.833905       -22.6917
  41   2.0000      -0.829919       -22.5832
  42   2.0000      -0.755380       -20.5549
  43   2.0000      -0.735042       -20.0015
  44   2.0000      -0.729637       -19.8544
  45   2.0000      -0.695432       -18.9237
  46   2.0000      -0.687496       -18.7077
  47   2.0000      -0.680636       -18.5210
  48   2.0000      -0.674383       -18.3509
  49   2.0000      -0.661627       -18.0038
  50   2.0000      -0.648410       -17.6441
  51   2.0000      -0.643271       -17.5043
  52   2.0000      -0.635826       -17.3017
  53   2.0000      -0.609334       -16.5808
  54   2.0000      -0.605449       -16.4751
  55   2.0000      -0.603134       -16.4121
  56   2.0000      -0.600850       -16.3500
  57   2.0000      -0.581328       -15.8187
  58   2.0000      -0.577424       -15.7125
  59   2.0000      -0.564701       -15.3663
  60   2.0000      -0.562837       -15.3156
  61   2.0000      -0.551452       -15.0058
  62   2.0000      -0.536011       -14.5856
  63   2.0000      -0.523181       -14.2365
  64   2.0000      -0.513688       -13.9782
  65   2.0000      -0.509832       -13.8732
  66   2.0000      -0.504336       -13.7237
  67   2.0000      -0.498884       -13.5753
  68   2.0000      -0.482595       -13.1321
  69   2.0000      -0.466206       -12.6861
  70   2.0000      -0.456699       -12.4274
  71   2.0000      -0.452642       -12.3170
  72   2.0000      -0.355364        -9.6700
  73   2.0000      -0.349415        -9.5081
  74   2.0000      -0.329018        -8.9530
  75   2.0000      -0.321122        -8.7382
  76   2.0000      -0.316705        -8.6180
  77   0.0000       0.069580         1.8934
  78   0.0000       0.103181         2.8077
  79   0.0000       0.117892         3.2080
  80   0.0000       0.130938         3.5630
  81   0.0000       0.134436         3.6582

MULLIKEN ATOMIC CHARGES
-----------------------
   0 C :   -0.256308
   1 C :    0.042696
   2 O :   -0.378806
   3 C :    0.451092
   4 O :   -0.391898
   5 C :   -0.198634
   6 C :    0.133875
   7 C :   -0.279699
   8 N :   -0.124717
   9 C :    0.201875
  10 S :   -0.438521
  11 N :   -0.201438
  12 C :    0.056359
  13 C :    0.024115
  14 C :   -0.155674
  15 C :   -0.135616
  16 C :   -0.279427
  17 C :    0.309439
  18 O :   -0.358628
  19 C :   -0.269756
  20 H :    0.106493
  21 H :    0.092389
  22 H :    0.085947
  23 H :    0.091787
  24 H :    0.107955
  25 H :    0.125027
  26 H :    0.106237
  27 H :    0.123495
  28 H :    0.197209
  29 H :    0.194213
  30 H :    0.155806
  31 H :    0.158456
  32 H :    0.161729
  33 H :    0.131730
  34 H :    0.241272
  35 H :    0.169924
Sum of atomic charges:    0.0000000

LOEWDIN ATOMIC CHARGES
----------------------
   0 C :    0.108321
   1 C :   -0.015460
   2 O :    0.287931
   3 C :   -0.422005
   4 O :    0.132952
   5 C :   -0.094320
   6 C :   -0.075779
   7 C :    0.126930
   8 N :    0.404140
   9 C :   -0.457422
  10 S :   -0.035464
  11 N :    0.396956
  12 C :   -0.045463
  13 C :   -0.042347
  14 C :    0.020841
  15 C :    0.041689
  16 C :   -0.002015
  17 C :   -0.194726
  18 O :    0.393750
  19 C :    0.028763
  20 H :   -0.021822
  21 H :   -0.028801
  22 H :   -0.027641
  23 H :   -0.034433
  24 H :   -0.023674
  25 H :   -0.007310
  26 H :   -0.018853
  27 H :   -0.010405
  28 H :   -0.058541
  29 H :   -0.064065
  30 H :   -0.004392
  31 H :   -0.024145
  32 H :   -0.019843
  33 H :   -0.035209
  34 H :   -0.153609
  35 H :   -0.024528

  Mayer bond orders larger than 0.100000
B(  0-C ,  1-C ) :   0.9832 B(  0-C , 20-H ) :   0.9771 B(  0-C , 21-H ) :   0.9802
B(  0-C , 22-H ) :   0.9761 B(  1-C ,  2-O ) :   0.8771 B(  1-C , 23-H ) :   0.9763
B(  1-C , 24-H ) :   0.9678 B(  2-O ,  3-C ) :   1.0895 B(  3-C ,  4-O ) :   2.0370
B(  3-C ,  5-C ) :   1.0206 B(  5-C ,  6-C ) :   1.6667 B(  5-C , 12-C ) :   0.9641
B(  6-C ,  7-C ) :   0.9517 B(  6-C ,  8-N ) :   1.1378 B(  7-C , 25-H ) :   0.9708
B(  7-C , 26-H ) :   0.9872 B(  7-C , 27-H ) :   0.9638 B(  8-N ,  9-C ) :   1.1841
B(  8-N , 28-H ) :   0.9499 B(  9-C , 10-S ) :   1.6124 B(  9-C , 11-N ) :   1.2988
B( 11-N , 12-C ) :   0.9933 B( 11-N , 29-H ) :   0.9518 B( 12-C , 13-C ) :   0.9433
B( 12-C , 30-H ) :   0.9983 B( 13-C , 14-C ) :   1.3802 B( 13-C , 19-C ) :   1.3670
B( 14-C , 15-C ) :   1.3939 B( 14-C , 31-H ) :   0.9630 B( 15-C , 16-C ) :   1.3640
B( 15-C , 32-H ) :   0.9709 B( 16-C , 17-C ) :   1.3295 B( 16-C , 33-H ) :   0.9847
B( 17-C , 18-O ) :   1.1110 B( 17-C , 19-C ) :   1.3746 B( 18-O , 34-H ) :   0.9796
B( 19-C , 35-H ) :   0.9578

MP2 TOTAL ENERGY:    -1274.321378500 Eh
FINAL SINGLE POINT ENERGY     -1274.321378499900

DIPOLE MOMENT
-------------
                                X             Y             Z
Electronic contribution:     11.07957       9.99074       7.62680
Nuclear contribution   :    -12.43389     -11.12359      -8.05890
                        -----------------------------------------
Total Dipole Moment    :     -1.35432      -1.13284      -0.43211
                        -----------------------------------------
Magnitude (a.u.)       :      1.81775
Magnitude (Debye)      :      4.62036

Rotational constants in cm-1:     0.011827     0.009078     0.006519
Rotational constants in MHz :   354.554180   272.162283   195.441708

                             ****ORCA TERMINATED NORMALLY****
TOTAL RUN TIME: 0 days 1 hours 50 minutes 17 seconds 68 msec
