                         Program Version 5.0.0 -  RELEASE  -
|  1> ! ri-mp2 cc-pvtz cc-pvtz/c TightSCF NoKeepInts
|  2>
|  3> %scf
|  4>   MaxCore 4096
|  5> end
|  6> *xyz  0  1
|  7>     C       15.9019947   13.1379555   16.5096325
|  8>     C       15.7255887   14.6413636   16.7793575
|  9>     O       16.9330886   15.3002960   16.3584413
| 10>     C       16.8898791   16.6560516   16.2205268
| 11>     O       16.0716865   17.1690735   15.4778483
| 12>     C       17.5641628   17.3877694   17.3513254
| 13>     C       17.4615044   18.7328739   17.5110583
| 14>     C       16.6535271   19.7009075   16.6730721
| 15>     N       18.1943745   19.3769236   18.5129671
| 16>     C       19.1765716   18.7861750   19.2625054
| 17>     S       20.1119220   19.6492005   20.3188314
| 18>     N       19.3536569   17.4382805   19.0812230
| 19>     C       18.4504607   16.5684455   18.3065030
| 20>     C       17.6428032   15.7051040   19.2699723
| 21>     C       17.9273596   14.3328088   19.4010822
| 22>     C       17.1841654   13.5294012   20.2820654
| 23>     C       16.1525811   14.1037733   21.0440502
| 24>     C       15.8742390   15.4722121   20.9251031
| 25>     O       14.8799759   16.0302711   21.6601522
| 26>     C       16.6134549   16.2687828   20.0452600
| 27>     H       16.7469496   12.7383467   17.0833126
| 28>     H       16.0887018   12.9566306   15.4437584
| 29>     H       14.9989179   12.5873502   16.7993218
| 30>     H       14.8678319   15.0072285   16.1982038
| 31>     H       15.5238659   14.8219527   17.8423439
| 32>     H       15.5872237   19.4432256   16.7071811
| 33>     H       16.9668039   19.6567814   15.6221418
| 34>     H       16.7526392   20.7415669   17.0033075
| 35>     H       18.0835954   20.3689360   18.6503292
| 36>     H       20.0666765   17.0247860   19.6681835
| 37>     H       19.0760198   15.9060332   17.6914366
| 38>     H       18.7226408   13.8852315   18.8107085
| 39>     H       17.4097426   12.4681915   20.3737691
| 40>     H       15.5768227   13.4875824   21.7270204
| 41>     H       14.5287453   15.3433991   22.2467836
| 42>     H       16.3868261   17.3270883   19.9752207
| 43> *
| 44>
| 45>                          ****END OF INPUT****

CARTESIAN COORDINATES (ANGSTROEM)
---------------------------------
  C     15.901995   13.137955   16.509632
  C     15.725589   14.641364   16.779357
  O     16.933089   15.300296   16.358441
  C     16.889879   16.656052   16.220527
  O     16.071686   17.169073   15.477848
  C     17.564163   17.387769   17.351325
  C     17.461504   18.732874   17.511058
  C     16.653527   19.700907   16.673072
  N     18.194374   19.376924   18.512967
  C     19.176572   18.786175   19.262505
  S     20.111922   19.649200   20.318831
  N     19.353657   17.438280   19.081223
  C     18.450461   16.568445   18.306503
  C     17.642803   15.705104   19.269972
  C     17.927360   14.332809   19.401082
  C     17.184165   13.529401   20.282065
  C     16.152581   14.103773   21.044050
  C     15.874239   15.472212   20.925103
  O     14.879976   16.030271   21.660152
  C     16.613455   16.268783   20.045260
  H     16.746950   12.738347   17.083313
  H     16.088702   12.956631   15.443758
  H     14.998918   12.587350   16.799322
  H     14.867832   15.007228   16.198204
  H     15.523866   14.821953   17.842344
  H     15.587224   19.443226   16.707181
  H     16.966804   19.656781   15.622142
  H     16.752639   20.741567   17.003307
  H     18.083595   20.368936   18.650329
  H     20.066676   17.024786   19.668183
  H     19.076020   15.906033   17.691437
  H     18.722641   13.885231   18.810709
  H     17.409743   12.468191   20.373769
  H     15.576823   13.487582   21.727020
  H     14.528745   15.343399   22.246784
  H     16.386826   17.327088   19.975221

 Total Charge           Charge          ....    0
 Multiplicity           Mult            ....    1
 Number of Electrons    NEL             ....  154
 Basis Dimension        Dim             ....  828

ORBITAL ENERGIES
----------------

  NO   OCC          E(Eh)            E(eV)
   0   2.0000     -91.890673     -2500.4723
   1   2.0000     -20.601211      -560.5874
   2   2.0000     -20.584871      -560.1428
   3   2.0000     -20.546623      -559.1020
   4   2.0000     -15.631168      -425.3457
   5   2.0000     -15.609793      -424.7641
   6   2.0000     -11.392731      -310.0120
   7   2.0000     -11.385425      -309.8132
   8   2.0000     -11.337590      -308.5115
   9   2.0000     -11.319110      -308.0086
  10   2.0000     -11.311712      -307.8073
  11   2.0000     -11.292534      -307.2855
  12   2.0000     -11.263796      -306.5035
  13   2.0000     -11.260493      -306.4136
  14   2.0000     -11.259872      -306.3967
  15   2.0000     -11.253304      -306.2180
  16   2.0000     -11.248166      -306.0782
  17   2.0000     -11.242735      -305.9304
  18   2.0000     -11.242578      -305.9261
  19   2.0000     -11.225865      -305.4713
  20   2.0000      -8.895711      -242.0646
  21   2.0000      -6.577279      -178.9769
  22   2.0000      -6.575281      -178.9225
  23   2.0000      -6.574688      -178.9064
  24   2.0000      -1.449425       -39.4409
  25   2.0000      -1.420908       -38.6649
  26   2.0000      -1.352525       -36.8041
  27   2.0000      -1.342215       -36.5235
  28   2.0000      -1.240661       -33.7601
  29   2.0000      -1.162019       -31.6201
  30   2.0000      -1.121507       -30.5178
  31   2.0000      -1.045924       -28.4610
  32   2.0000      -1.034706       -28.1558
  33   2.0000      -1.020244       -27.7622
  34   2.0000      -0.997606       -27.1462
  35   2.0000      -0.985872       -26.8269
  36   2.0000      -0.925312       -25.1790
  37   2.0000      -0.879827       -23.9413
  38   2.0000      -0.849061       -23.1041
  39   2.0000      -0.841790       -22.9063
  40   2.0000      -0.838312       -22.8116
  41   2.0000      -0.826503       -22.4903
  42   2.0000      -0.761855       -20.7311
  43   2.0000      -0.736156       -20.0318
  44   2.0000      -0.724301       -19.7092
  45   2.0000      -0.700416       -19.0593
  46   2.0000      -0.690881       -18.7998
  47   2.0000      -0.678553       -18.4644
  48   2.0000      -0.673294       -18.3213
  49   2.0000      -0.656688       -17.8694
  50   2.0000      -0.648225       -17.6391
  51   2.0000      -0.644148       -17.5282
  52   2.0000      -0.630052       -17.1446
  53   2.0000      -0.621786       -16.9196
  54   2.0000      -0.611822       -16.6485
  55   2.0000      -0.603643       -16.4260
  56   2.0000      -0.601045       -16.3553
  57   2.0000      -0.581550       -15.8248
  58   2.0000      -0.572180       -15.5698
  59   2.0000      -0.565976       -15.4010
  60   2.0000      -0.555095       -15.1049
  61   2.0000      -0.540727       -14.7139
  62   2.0000      -0.532619       -14.4933
  63   2.0000      -0.529393       -14.4055
  64   2.0000      -0.519008       -14.1229
  65   2.0000      -0.516199       -14.0465
  66   2.0000      -0.506027       -13.7697
  67   2.0000      -0.500078       -13.6078
  68   2.0000      -0.486799       -13.2465
  69   2.0000      -0.464592       -12.6422
  70   2.0000      -0.456791       -12.4299
  71   2.0000      -0.444806       -12.1038
  72   2.0000      -0.357058        -9.7160
  73   2.0000      -0.354013        -9.6332
  74   2.0000      -0.330521        -8.9939
  75   2.0000      -0.326489        -8.8842
  76   2.0000      -0.317760        -8.6467
  77   0.0000       0.069057         1.8791
  78   0.0000       0.101718         2.7679
  79   0.0000       0.122726         3.3395
  80   0.0000       0.128187         3.4881
  81   0.0000       0.133337         3.6283

MULLIKEN ATOMIC CHARGES
-----------------------
   0 C :   -0.267204
   1 C :    0.008487
   2 O :   -0.382862
   3 C :    0.515073
   4 O :   -0.413650
   5 C :   -0.282807
   6 C :    0.158608
   7 C :   -0.269621
   8 N :   -0.123996
   9 C :    0.211992
  10 S :   -0.437185
  11 N :   -0.201706
  12 C :    0.052034
  13 C :    0.022386
  14 C :   -0.170468
  15 C :   -0.135093
  16 C :   -0.271227
  17 C :    0.304982
  18 O :   -0.356317
  19 C :   -0.243285
  20 H :    0.088637
  21 H :    0.105603
  22 H :    0.089011
  23 H :    0.123526
  24 H :    0.112106
  25 H :    0.130955
  26 H :    0.132834
  27 H :    0.094994
  28 H :    0.198361
  29 H :    0.193366
  30 H :    0.149696
  31 H :    0.154846
  32 H :    0.165117
  33 H :    0.133460
  34 H :    0.241621
  35 H :    0.167724
Sum of atomic charges:   -0.0000000

LOEWDIN ATOMIC CHARGES
----------------------
   0 C :    0.109030
   1 C :   -0.017857
   2 O :    0.291231
   3 C :   -0.417767
   4 O :    0.115298
   5 C :   -0.098543
   6 C :   -0.057726
   7 C :    0.131256
   8 N :    0.407043
   9 C :   -0.456698
  10 S :   -0.033138
  11 N :    0.396273
  12 C :   -0.053179
  13 C :   -0.038846
  14 C :    0.015275
  15 C :    0.042645
  16 C :   -0.001651
  17 C :   -0.190839
  18 O :    0.396667
  19 C :    0.030129
  20 H :   -0.032260
  21 H :   -0.025115
  22 H :   -0.025364
  23 H :   -0.029029
  24 H :   -0.033568
  25 H :   -0.004943
  26 H :   -0.003370
  27 H :   -0.023257
  28 H :   -0.057334
  29 H :   -0.065096
  30 H :   -0.007861
  31 H :   -0.029941
  32 H :   -0.020013
  33 H :   -0.034427
  34 H :   -0.152781
  35 H :   -0.024246

  Mayer bond orders larger than 0.100000
B(  0-C ,  1-C ) :   0.9791 B(  0-C , 20-H ) :   0.9779 B(  0-C , 21-H ) :   0.9784
B(  0-C , 22-H ) :   0.9762 B(  1-C ,  2-O ) :   0.8731 B(  1-C , 23-H ) :   0.9785
B(  1-C , 24-H ) :   0.9642 B(  2-O ,  3-C ) :   1.1103 B(  3-C ,  4-O ) :   2.0086
B(  3-C ,  5-C ) :   1.0680 B(  5-C ,  6-C ) :   1.6509 B(  5-C , 12-C ) :   0.9715
B(  6-C ,  7-C ) :   0.9683 B(  6-C ,  8-N ) :   1.1586 B(  7-C , 25-H ) :   0.9609
B(  7-C , 26-H ) :   0.9590 B(  7-C , 27-H ) :   0.9900 B(  8-N ,  9-C ) :   1.1802
B(  8-N , 28-H ) :   0.9478 B(  9-C , 10-S ) :   1.6107 B(  9-C , 11-N ) :   1.3046
B( 11-N , 12-C ) :   0.9745 B( 11-N , 29-H ) :   0.9533 B( 12-C , 13-C ) :   0.9441
B( 12-C , 30-H ) :   1.0014 B( 13-C , 14-C ) :   1.3558 B( 13-C , 19-C ) :   1.3754
B( 14-C , 15-C ) :   1.3848 B( 14-C , 31-H ) :   0.9718 B( 15-C , 16-C ) :   1.3642
B( 15-C , 32-H ) :   0.9690 B( 16-C , 17-C ) :   1.3283 B( 16-C , 33-H ) :   0.9839
B( 17-C , 18-O ) :   1.1147 B( 17-C , 19-C ) :   1.3772 B( 18-O , 34-H ) :   0.9790
B( 19-C , 35-H ) :   0.9572

MP2 TOTAL ENERGY:    -1274.334053056 Eh
FINAL SINGLE POINT ENERGY     -1274.334053056439

DIPOLE MOMENT
-------------
                                X             Y             Z
Electronic contribution:      9.01362      11.10361       5.99384
Nuclear contribution   :    -10.08478     -12.58354      -5.90133
                        -----------------------------------------
Total Dipole Moment    :     -1.07117      -1.47993       0.09251
                        -----------------------------------------
Magnitude (a.u.)       :      1.82925
Magnitude (Debye)      :      4.64958

Rotational constants in cm-1:     0.012498     0.008761     0.006408
Rotational constants in MHz :   374.690121   262.635385   192.093449

                             ****ORCA TERMINATED NORMALLY****
TOTAL RUN TIME: 0 days 2 hours 7 minutes 55 seconds 231 msec
