                         Program Version 4.2.0 -  RELEASE  -
|  1> ! ri-mp2 cc-pvtz cc-pvtz/c TightSCF  NoKeepInts
|  2>
|  3> %scf
|  4>   MaxCore 4096
|  5> end
|  6> *xyz  0  1
|  7>     C       15.0069425   14.1752453   16.4152902
|  8>     C       15.6773649   14.9470083   15.2574704
|  9>     O       16.4257709   16.0658473   15.7736536
| 10>     C       17.4792804   15.8668745   16.6198537
| 11>     O       18.0561334   14.7944860   16.7025078
| 12>     C       17.7856488   17.0205698   17.5322028
| 13>     C       17.3268722   18.2905435   17.3756015
| 14>     C       16.4425452   18.8377320   16.2737693
| 15>     N       17.7270217   19.2880097   18.2713068
| 16>     C       18.6763422   19.1330646   19.2465419
| 17>     S       19.1791186   20.4002874   20.1830454
| 18>     N       19.1875936   17.8704920   19.4060105
| 19>     C       18.6848755   16.6648270   18.7215701
| 20>     C       17.9512223   15.7571569   19.7057218
| 21>     C       18.3300141   14.4097530   19.8509884
| 22>     C       17.6520688   13.5673679   20.7479882
| 23>     C       16.5847205   14.0755863   21.5076180
| 24>     C       16.2016542   15.4159237   21.3633942
| 25>     O       15.1668420   15.9078968   22.0903511
| 26>     C       16.8780817   16.2518043   20.4694347
| 27>     H       15.7485414   13.6769798   17.0520967
| 28>     H       14.3371115   13.4025890   16.0192180
| 29>     H       14.4134027   14.8530140   17.0412335
| 30>     H       16.3390962   14.2734634   14.6959883
| 31>     H       14.9042120   15.3145972   14.5707715
| 32>     H       15.4318289   18.4166676   16.3439309
| 33>     H       16.8480177   18.5830561   15.2866136
| 34>     H       16.3467760   19.9296681   16.3095082
| 35>     H       17.3633529   20.2221283   18.1710422
| 36>     H       19.8627327   17.7751882   20.1536748
| 37>     H       19.5554901   16.1178430   18.3315487
| 38>     H       19.1431829   14.0093998   19.2503433
| 39>     H       17.9512336   12.5253890   20.8459023
| 40>     H       16.0570821   13.4279742   22.1997840
| 41>     H       14.8581681   15.1971845   22.6720550
| 42>     H       16.5666575   17.2863818   20.3759683
| 43> *
| 44>
| 45>                          ****END OF INPUT****

CARTESIAN COORDINATES (ANGSTROEM)
---------------------------------
  C     15.006942   14.175245   16.415290
  C     15.677365   14.947008   15.257470
  O     16.425771   16.065847   15.773654
  C     17.479280   15.866874   16.619854
  O     18.056133   14.794486   16.702508
  C     17.785649   17.020570   17.532203
  C     17.326872   18.290543   17.375601
  C     16.442545   18.837732   16.273769
  N     17.727022   19.288010   18.271307
  C     18.676342   19.133065   19.246542
  S     19.179119   20.400287   20.183045
  N     19.187594   17.870492   19.406011
  C     18.684876   16.664827   18.721570
  C     17.951222   15.757157   19.705722
  C     18.330014   14.409753   19.850988
  C     17.652069   13.567368   20.747988
  C     16.584720   14.075586   21.507618
  C     16.201654   15.415924   21.363394
  O     15.166842   15.907897   22.090351
  C     16.878082   16.251804   20.469435
  H     15.748541   13.676980   17.052097
  H     14.337112   13.402589   16.019218
  H     14.413403   14.853014   17.041234
  H     16.339096   14.273463   14.695988
  H     14.904212   15.314597   14.570771
  H     15.431829   18.416668   16.343931
  H     16.848018   18.583056   15.286614
  H     16.346776   19.929668   16.309508
  H     17.363353   20.222128   18.171042
  H     19.862733   17.775188   20.153675
  H     19.555490   16.117843   18.331549
  H     19.143183   14.009400   19.250343
  H     17.951234   12.525389   20.845902
  H     16.057082   13.427974   22.199784
  H     14.858168   15.197185   22.672055
  H     16.566658   17.286382   20.375968

 Total Charge           Charge          ....    0
 Multiplicity           Mult            ....    1
 Number of Electrons    NEL             ....  154
 Basis Dimension        Dim             ....  828

ORBITAL ENERGIES
----------------

  NO   OCC          E(Eh)            E(eV)
   0   2.0000     -91.888242     -2500.4062
   1   2.0000     -20.601098      -560.5844
   2   2.0000     -20.592253      -560.3437
   3   2.0000     -20.545531      -559.0723
   4   2.0000     -15.628604      -425.2759
   5   2.0000     -15.606964      -424.6871
   6   2.0000     -11.396331      -310.1099
   7   2.0000     -11.383148      -309.7512
   8   2.0000     -11.336723      -308.4879
   9   2.0000     -11.308153      -307.7105
  10   2.0000     -11.305676      -307.6431
  11   2.0000     -11.301608      -307.5324
  12   2.0000     -11.260606      -306.4167
  13   2.0000     -11.258689      -306.3645
  14   2.0000     -11.253951      -306.2356
  15   2.0000     -11.248312      -306.0821
  16   2.0000     -11.237954      -305.8003
  17   2.0000     -11.234068      -305.6945
  18   2.0000     -11.230998      -305.6110
  19   2.0000     -11.225704      -305.4669
  20   2.0000      -8.893305      -241.9991
  21   2.0000      -6.574881      -178.9116
  22   2.0000      -6.572875      -178.8570
  23   2.0000      -6.572289      -178.8411
  24   2.0000      -1.452474       -39.5238
  25   2.0000      -1.412001       -38.4225
  26   2.0000      -1.356482       -36.9118
  27   2.0000      -1.339525       -36.4503
  28   2.0000      -1.237182       -33.6654
  29   2.0000      -1.152760       -31.3682
  30   2.0000      -1.119679       -30.4680
  31   2.0000      -1.042005       -28.3544
  32   2.0000      -1.033388       -28.1199
  33   2.0000      -1.010067       -27.4853
  34   2.0000      -0.997697       -27.1487
  35   2.0000      -0.983178       -26.7536
  36   2.0000      -0.921723       -25.0813
  37   2.0000      -0.895425       -24.3657
  38   2.0000      -0.847849       -23.0711
  39   2.0000      -0.835629       -22.7386
  40   2.0000      -0.828478       -22.5440
  41   2.0000      -0.815530       -22.1917
  42   2.0000      -0.750613       -20.4252
  43   2.0000      -0.735305       -20.0087
  44   2.0000      -0.725199       -19.7337
  45   2.0000      -0.691078       -18.8052
  46   2.0000      -0.685592       -18.6559
  47   2.0000      -0.678554       -18.4644
  48   2.0000      -0.671332       -18.2679
  49   2.0000      -0.654966       -17.8225
  50   2.0000      -0.653118       -17.7722
  51   2.0000      -0.644540       -17.5388
  52   2.0000      -0.631824       -17.1928
  53   2.0000      -0.614391       -16.7184
  54   2.0000      -0.600630       -16.3440
  55   2.0000      -0.600085       -16.3291
  56   2.0000      -0.595660       -16.2087
  57   2.0000      -0.580138       -15.7864
  58   2.0000      -0.574133       -15.6230
  59   2.0000      -0.563931       -15.3453
  60   2.0000      -0.557076       -15.1588
  61   2.0000      -0.545659       -14.8481
  62   2.0000      -0.536789       -14.6068
  63   2.0000      -0.528357       -14.3773
  64   2.0000      -0.517264       -14.0755
  65   2.0000      -0.509438       -13.8625
  66   2.0000      -0.498783       -13.5726
  67   2.0000      -0.495182       -13.4746
  68   2.0000      -0.480860       -13.0849
  69   2.0000      -0.463340       -12.6081
  70   2.0000      -0.459210       -12.4958
  71   2.0000      -0.451265       -12.2795
  72   2.0000      -0.354270        -9.6402
  73   2.0000      -0.344600        -9.3770
  74   2.0000      -0.327381        -8.9085
  75   2.0000      -0.315982        -8.5983
  76   2.0000      -0.314274        -8.5518
  77   0.0000       0.075411         2.0520
  78   0.0000       0.111970         3.0469
  79   0.0000       0.120878         3.2893
  80   0.0000       0.135465         3.6862
  81   0.0000       0.141754         3.8573

MULLIKEN ATOMIC CHARGES
-----------------------
   0 C :   -0.305455
   1 C :    0.034877
   2 O :   -0.355257
   3 C :    0.450652
   4 O :   -0.431654
   5 C :   -0.174350
   6 C :    0.144237
   7 C :   -0.282669
   8 N :   -0.121662
   9 C :    0.202113
  10 S :   -0.439069
  11 N :   -0.198858
  12 C :    0.040580
  13 C :    0.056135
  14 C :   -0.165188
  15 C :   -0.134367
  16 C :   -0.279320
  17 C :    0.312284
  18 O :   -0.359069
  19 C :   -0.273652
  20 H :    0.126927
  21 H :    0.096575
  22 H :    0.094753
  23 H :    0.105951
  24 H :    0.108025
  25 H :    0.125719
  26 H :    0.127606
  27 H :    0.101473
  28 H :    0.196838
  29 H :    0.193961
  30 H :    0.153788
  31 H :    0.154721
  32 H :    0.159769
  33 H :    0.128490
  34 H :    0.240164
  35 H :    0.164928
Sum of atomic charges:   -0.0000000

LOEWDIN ATOMIC CHARGES
----------------------
   0 C :    0.106195
   1 C :   -0.016329
   2 O :    0.301528
   3 C :   -0.414261
   4 O :    0.104774
   5 C :   -0.091172
   6 C :   -0.065214
   7 C :    0.125265
   8 N :    0.404926
   9 C :   -0.458744
  10 S :   -0.035806
  11 N :    0.397944
  12 C :   -0.046425
  13 C :   -0.039239
  14 C :    0.021898
  15 C :    0.040296
  16 C :   -0.002266
  17 C :   -0.192703
  18 O :    0.393075
  19 C :    0.028463
  20 H :   -0.023537
  21 H :   -0.026495
  22 H :   -0.029357
  23 H :   -0.028094
  24 H :   -0.025299
  25 H :   -0.010042
  26 H :   -0.007939
  27 H :   -0.021205
  28 H :   -0.059121
  29 H :   -0.063632
  30 H :   -0.005122
  31 H :   -0.025167
  32 H :   -0.021150
  33 H :   -0.036290
  34 H :   -0.154807
  35 H :   -0.024946

  Mayer bond orders larger than 0.100000
B(  0-C ,  1-C ) :   0.9606 B(  0-C , 20-H ) :   0.9715 B(  0-C , 21-H ) :   0.9762
B(  0-C , 22-H ) :   0.9760 B(  1-C ,  2-O ) :   0.8964 B(  1-C , 23-H ) :   0.9808
B(  1-C , 24-H ) :   0.9843 B(  2-O ,  3-C ) :   1.1454 B(  3-C ,  4-O ) :   1.9794
B(  3-C ,  5-C ) :   1.0555 B(  5-C ,  6-C ) :   1.6455 B(  5-C , 12-C ) :   0.9662
B(  6-C ,  7-C ) :   0.9556 B(  6-C ,  8-N ) :   1.1499 B(  7-C , 25-H ) :   0.9638
B(  7-C , 26-H ) :   0.9652 B(  7-C , 27-H ) :   0.9911 B(  8-N ,  9-C ) :   1.1786
B(  8-N , 28-H ) :   0.9487 B(  9-C , 10-S ) :   1.6108 B(  9-C , 11-N ) :   1.3044
B( 11-N , 12-C ) :   0.9920 B( 11-N , 29-H ) :   0.9518 B( 12-C , 13-C ) :   0.9457
B( 12-C , 30-H ) :   1.0001 B( 13-C , 14-C ) :   1.3752 B( 13-C , 19-C ) :   1.3694
B( 14-C , 15-C ) :   1.3942 B( 14-C , 31-H ) :   0.9644 B( 15-C , 16-C ) :   1.3623
B( 15-C , 32-H ) :   0.9712 B( 16-C , 17-C ) :   1.3317 B( 16-C , 33-H ) :   0.9858
B( 17-C , 18-O ) :   1.1082 B( 17-C , 19-C ) :   1.3778 B( 18-O , 34-H ) :   0.9805
B( 19-C , 35-H ) :   0.9584

MP2 TOTAL ENERGY:    -1274.347165959 Eh
FINAL SINGLE POINT ENERGY     -1274.347165958943

DIPOLE MOMENT
-------------
                                X             Y             Z
Electronic contribution:     10.36664       9.95991       8.72774
Nuclear contribution   :    -11.86256     -11.20770      -9.76453
                        -----------------------------------------
Total Dipole Moment    :     -1.49592      -1.24779      -1.03679
                        -----------------------------------------
Magnitude (a.u.)       :      2.20674
Magnitude (Debye)      :      5.60908

Rotational constants in cm-1:     0.010986     0.009242     0.006163
Rotational constants in MHz :   329.342006   277.057145   184.764207

                             ****ORCA TERMINATED NORMALLY****
TOTAL RUN TIME: 0 days 1 hours 44 minutes 57 seconds 431 msec
