                         Program Version 5.0.0 -  RELEASE  -
|  1> ! ri-mp2 cc-pvtz cc-pvtz/c TightSCF NoKeepInts
|  2>
|  3> %scf
|  4>   MaxCore 4096
|  5> end
|  6> *xyz  0  1
|  7>     C       14.8438291   14.1930055   16.7281985
|  8>     C       15.4889477   15.5865724   16.6607141
|  9>     O       16.7231758   15.4486762   15.9290745
| 10>     C       17.9215003   15.6521155   16.5554742
| 11>     O       18.7455842   14.7581551   16.6166720
| 12>     C       18.0215895   16.8859381   17.3998674
| 13>     C       17.5293523   18.0941157   17.0318816
| 14>     C       16.8610457   18.4569997   15.7224395
| 15>     N       17.6977040   19.1975267   17.8725298
| 16>     C       18.4436771   19.1975022   19.0222914
| 17>     S       18.6608307   20.5710476   19.9167913
| 18>     N       18.9971647   17.9980944   19.3965501
| 19>     C       18.7495572   16.7035065   18.7322473
| 20>     C       17.9594584   15.7629020   19.6380054
| 21>     C       18.3671454   14.4264083   19.8015641
| 22>     C       17.6272617   13.5448070   20.6070027
| 23>     C       16.4664637   14.0015592   21.2537390
| 24>     C       16.0535302   15.3303719   21.0894483
| 25>     O       14.9254795   15.7716483   21.7003699
| 26>     C       16.7919662   16.2058931   20.2871147
| 27>     H       15.4964603   13.4942847   17.2675914
| 28>     H       14.6711496   13.7957687   15.7201072
| 29>     H       13.8814337   14.2371691   17.2521926
| 30>     H       14.8138800   16.2702788   16.1310069
| 31>     H       15.6441836   15.9655637   17.6791000
| 32>     H       17.1483502   17.7727812   14.9143139
| 33>     H       17.1487456   19.4627886   15.3910038
| 34>     H       15.7691023   18.4354568   15.8153049
| 35>     H       17.3079320   20.0896549   17.6113328
| 36>     H       19.5232821   18.0221965   20.2610084
| 37>     H       19.7260009   16.2423571   18.5222015
| 38>     H       19.2528541   14.0639150   19.2841300
| 39>     H       17.9512489   12.5115249   20.7197600
| 40>     H       15.8903108   13.3223680   21.8734400
| 41>     H       14.5941517   15.0489582   22.2549504
| 42>     H       16.4526507   17.2300887   20.1745806
| 43> *
| 44>
| 45>                          ****END OF INPUT****

CARTESIAN COORDINATES (ANGSTROEM)
---------------------------------
  C     14.843829   14.193005   16.728199
  C     15.488948   15.586572   16.660714
  O     16.723176   15.448676   15.929074
  C     17.921500   15.652116   16.555474
  O     18.745584   14.758155   16.616672
  C     18.021590   16.885938   17.399867
  C     17.529352   18.094116   17.031882
  C     16.861046   18.457000   15.722440
  N     17.697704   19.197527   17.872530
  C     18.443677   19.197502   19.022291
  S     18.660831   20.571048   19.916791
  N     18.997165   17.998094   19.396550
  C     18.749557   16.703506   18.732247
  C     17.959458   15.762902   19.638005
  C     18.367145   14.426408   19.801564
  C     17.627262   13.544807   20.607003
  C     16.466464   14.001559   21.253739
  C     16.053530   15.330372   21.089448
  O     14.925479   15.771648   21.700370
  C     16.791966   16.205893   20.287115
  H     15.496460   13.494285   17.267591
  H     14.671150   13.795769   15.720107
  H     13.881434   14.237169   17.252193
  H     14.813880   16.270279   16.131007
  H     15.644184   15.965564   17.679100
  H     17.148350   17.772781   14.914314
  H     17.148746   19.462789   15.391004
  H     15.769102   18.435457   15.815305
  H     17.307932   20.089655   17.611333
  H     19.523282   18.022196   20.261008
  H     19.726001   16.242357   18.522202
  H     19.252854   14.063915   19.284130
  H     17.951249   12.511525   20.719760
  H     15.890311   13.322368   21.873440
  H     14.594152   15.048958   22.254950
  H     16.452651   17.230089   20.174581

 Total Charge           Charge          ....    0
 Multiplicity           Mult            ....    1
 Number of Electrons    NEL             ....  154
 Basis Dimension        Dim             ....  828

ORBITAL ENERGIES
----------------

  NO   OCC          E(Eh)            E(eV)
   0   2.0000     -91.891130     -2500.4848
   1   2.0000     -20.599275      -560.5348
   2   2.0000     -20.593447      -560.3762
   3   2.0000     -20.551899      -559.2456
   4   2.0000     -15.630111      -425.3169
   5   2.0000     -15.611152      -424.8010
   6   2.0000     -11.395915      -310.0986
   7   2.0000     -11.387173      -309.8607
   8   2.0000     -11.335611      -308.4576
   9   2.0000     -11.315945      -307.9225
  10   2.0000     -11.311784      -307.8093
  11   2.0000     -11.303768      -307.5912
  12   2.0000     -11.265835      -306.5590
  13   2.0000     -11.263495      -306.4953
  14   2.0000     -11.261893      -306.4517
  15   2.0000     -11.255633      -306.2814
  16   2.0000     -11.245183      -305.9970
  17   2.0000     -11.241641      -305.9006
  18   2.0000     -11.237993      -305.8013
  19   2.0000     -11.227585      -305.5181
  20   2.0000      -8.896216      -242.0783
  21   2.0000      -6.577794      -178.9909
  22   2.0000      -6.575780      -178.9361
  23   2.0000      -6.575196      -178.9202
  24   2.0000      -1.449327       -39.4382
  25   2.0000      -1.419086       -38.6153
  26   2.0000      -1.359785       -37.0016
  27   2.0000      -1.342084       -36.5200
  28   2.0000      -1.240645       -33.7597
  29   2.0000      -1.160313       -31.5737
  30   2.0000      -1.124673       -30.6039
  31   2.0000      -1.047717       -28.5098
  32   2.0000      -1.036233       -28.1973
  33   2.0000      -1.017816       -27.6962
  34   2.0000      -1.004313       -27.3287
  35   2.0000      -0.988949       -26.9107
  36   2.0000      -0.927131       -25.2285
  37   2.0000      -0.881293       -23.9812
  38   2.0000      -0.855472       -23.2786
  39   2.0000      -0.842797       -22.9337
  40   2.0000      -0.836135       -22.7524
  41   2.0000      -0.835038       -22.7225
  42   2.0000      -0.753630       -20.5073
  43   2.0000      -0.738734       -20.1020
  44   2.0000      -0.731019       -19.8920
  45   2.0000      -0.697351       -18.9759
  46   2.0000      -0.688060       -18.7231
  47   2.0000      -0.678909       -18.4741
  48   2.0000      -0.678080       -18.4515
  49   2.0000      -0.663375       -18.0513
  50   2.0000      -0.655268       -17.8308
  51   2.0000      -0.649475       -17.6731
  52   2.0000      -0.641269       -17.4498
  53   2.0000      -0.610161       -16.6033
  54   2.0000      -0.607642       -16.5348
  55   2.0000      -0.603151       -16.4126
  56   2.0000      -0.594507       -16.1773
  57   2.0000      -0.581556       -15.8250
  58   2.0000      -0.579004       -15.7555
  59   2.0000      -0.572348       -15.5744
  60   2.0000      -0.563847       -15.3430
  61   2.0000      -0.558438       -15.1959
  62   2.0000      -0.544571       -14.8185
  63   2.0000      -0.525646       -14.3035
  64   2.0000      -0.516587       -14.0570
  65   2.0000      -0.515102       -14.0166
  66   2.0000      -0.502440       -13.6721
  67   2.0000      -0.498668       -13.5694
  68   2.0000      -0.488388       -13.2897
  69   2.0000      -0.471043       -12.8177
  70   2.0000      -0.457536       -12.4502
  71   2.0000      -0.450003       -12.2452
  72   2.0000      -0.357713        -9.7339
  73   2.0000      -0.351393        -9.5619
  74   2.0000      -0.330529        -8.9941
  75   2.0000      -0.323312        -8.7978
  76   2.0000      -0.319208        -8.6861
  77   0.0000       0.074871         2.0373
  78   0.0000       0.103688         2.8215
  79   0.0000       0.117778         3.2049
  80   0.0000       0.129086         3.5126
  81   0.0000       0.135628         3.6906

MULLIKEN ATOMIC CHARGES
-----------------------
   0 C :   -0.252403
   1 C :    0.004004
   2 O :   -0.340965
   3 C :    0.442045
   4 O :   -0.384778
   5 C :   -0.240844
   6 C :    0.165885
   7 C :   -0.315379
   8 N :   -0.130325
   9 C :    0.198899
  10 S :   -0.437533
  11 N :   -0.206805
  12 C :    0.068339
  13 C :    0.038023
  14 C :   -0.183492
  15 C :   -0.132708
  16 C :   -0.277064
  17 C :    0.323358
  18 O :   -0.358490
  19 C :   -0.303868
  20 H :    0.107069
  21 H :    0.100512
  22 H :    0.088068
  23 H :    0.099479
  24 H :    0.109948
  25 H :    0.139903
  26 H :    0.123636
  27 H :    0.120736
  28 H :    0.197581
  29 H :    0.196282
  30 H :    0.160657
  31 H :    0.165796
  32 H :    0.163780
  33 H :    0.131929
  34 H :    0.241592
  35 H :    0.177134
Sum of atomic charges:    0.0000000

LOEWDIN ATOMIC CHARGES
----------------------
   0 C :    0.109767
   1 C :   -0.021528
   2 O :    0.299428
   3 C :   -0.419399
   4 O :    0.126637
   5 C :   -0.091541
   6 C :   -0.083479
   7 C :    0.127714
   8 N :    0.403490
   9 C :   -0.457832
  10 S :   -0.034803
  11 N :    0.397122
  12 C :   -0.045848
  13 C :   -0.043871
  14 C :    0.022515
  15 C :    0.044343
  16 C :   -0.000477
  17 C :   -0.194623
  18 O :    0.394054
  19 C :    0.025986
  20 H :   -0.021821
  21 H :   -0.025296
  22 H :   -0.027194
  23 H :   -0.034020
  24 H :   -0.034330
  25 H :   -0.006438
  26 H :   -0.013880
  27 H :   -0.016530
  28 H :   -0.057460
  29 H :   -0.063531
  30 H :   -0.003089
  31 H :   -0.022308
  32 H :   -0.018966
  33 H :   -0.034836
  34 H :   -0.153049
  35 H :   -0.024907

  Mayer bond orders larger than 0.100000
B(  0-C ,  1-C ) :   0.9893 B(  0-C , 20-H ) :   0.9759 B(  0-C , 21-H ) :   0.9788
B(  0-C , 22-H ) :   0.9766 B(  1-C ,  2-O ) :   0.8888 B(  1-C , 23-H ) :   0.9791
B(  1-C , 24-H ) :   0.9582 B(  2-O ,  3-C ) :   1.1575 B(  3-C ,  4-O ) :   2.0767
B(  3-C ,  5-C ) :   0.9549 B(  5-C ,  6-C ) :   1.6700 B(  5-C , 12-C ) :   0.9587
B(  6-C ,  7-C ) :   0.9427 B(  6-C ,  8-N ) :   1.1338 B(  7-C , 25-H ) :   0.9718
B(  7-C , 26-H ) :   0.9800 B(  7-C , 27-H ) :   0.9656 B(  8-N ,  9-C ) :   1.1867
B(  8-N , 28-H ) :   0.9507 B(  9-C , 10-S ) :   1.6143 B(  9-C , 11-N ) :   1.2946
B( 11-N , 12-C ) :   0.9964 B( 11-N , 29-H ) :   0.9508 B( 12-C , 13-C ) :   0.9415
B( 12-C , 30-H ) :   0.9983 B( 13-C , 14-C ) :   1.3869 B( 13-C , 19-C ) :   1.3445
B( 14-C , 15-C ) :   1.3958 B( 14-C , 31-H ) :   0.9603 B( 15-C , 16-C ) :   1.3632
B( 15-C , 32-H ) :   0.9699 B( 16-C , 17-C ) :   1.3308 B( 16-C , 33-H ) :   0.9844
B( 17-C , 18-O ) :   1.1111 B( 17-C , 19-C ) :   1.3649 B( 18-O , 34-H ) :   0.9794
B( 19-C , 35-H ) :   0.9579

MP2 TOTAL ENERGY:    -1274.334943713 Eh
FINAL SINGLE POINT ENERGY     -1274.334943712757

DIPOLE MOMENT
-------------
                                X             Y             Z
Electronic contribution:     10.62648       8.87157       6.69324
Nuclear contribution   :    -12.11822      -9.80765      -7.04670
                        -----------------------------------------
Total Dipole Moment    :     -1.49174      -0.93608      -0.35345
                        -----------------------------------------
Magnitude (a.u.)       :      1.79624
Magnitude (Debye)      :      4.56567

Rotational constants in cm-1:     0.011948     0.009207     0.006719
Rotational constants in MHz :   358.183998   276.006703   201.435379

                             ****ORCA TERMINATED NORMALLY****
TOTAL RUN TIME: 0 days 1 hours 49 minutes 3 seconds 245 msec
