                         Program Version 4.2.0 -  RELEASE  -
|  1> ! ri-mp2 cc-pvtz cc-pvtz/c TightSCF  NoKeepInts
|  2>
|  3> %scf
|  4>   MaxCore 4096
|  5> end
|  6> *xyz  0  1
|  7>     C       15.3748263   14.5483139   14.2126275
|  8>     C       15.1817540   14.6424357   15.7356886
|  9>     O       16.0115007   15.7196730   16.2101760
| 10>     C       17.0725501   15.4686625   17.0327611
| 11>     O       17.4680062   14.3383503   17.2677003
| 12>     C       17.6463988   16.6799339   17.7141703
| 13>     C       17.3740173   17.9714974   17.3867860
| 14>     C       16.4622734   18.4911454   16.2936310
| 15>     N       18.0272178   19.0101099   18.0593918
| 16>     C       19.0598141   18.8453792   18.9441102
| 17>     S       19.8679531   20.1351343   19.5915090
| 18>     N       19.3880001   17.5530233   19.2644826
| 19>     C       18.6149743   16.3639370   18.8604570
| 20>     C       17.8756451   15.7754847   20.0595694
| 21>     C       18.0461296   14.4226642   20.4074185
| 22>     C       17.3674976   13.8747080   21.5088450
| 23>     C       16.5097956   14.6859381   22.2709601
| 24>     C       16.3341170   16.0328597   21.9260135
| 25>     O       15.5019823   16.8173901   22.6564129
| 26>     C       17.0105718   16.5752746   20.8288738
| 27>     H       15.1205817   15.4994747   13.7287934
| 28>     H       14.7328859   13.7650840   13.7914362
| 29>     H       16.4168686   14.3028224   13.9717975
| 30>     H       14.1301638   14.8686482   15.9538925
| 31>     H       15.4253570   13.6818717   16.2096614
| 32>     H       16.7247446   18.0481636   15.3247812
| 33>     H       16.5186834   19.5799690   16.1752283
| 34>     H       15.4164991   18.2390921   16.5094693
| 35>     H       17.8008370   19.9663859   17.8377180
| 36>     H       20.1315578   17.4579144   19.9441639
| 37>     H       19.3309010   15.6128635   18.4963228
| 38>     H       18.6957044   13.7886107   19.8088213
| 39>     H       17.5035066   12.8251131   21.7630659
| 40>     H       15.9822708   14.2663338   23.1209743
| 41>     H       15.1586525   16.2766971   23.3833891
| 42>     H       16.8627607   17.6210410   20.5829004
| 43> *
| 44>
| 45>                          ****END OF INPUT****

CARTESIAN COORDINATES (ANGSTROEM)
---------------------------------
  C     15.374826   14.548314   14.212627
  C     15.181754   14.642436   15.735689
  O     16.011501   15.719673   16.210176
  C     17.072550   15.468663   17.032761
  O     17.468006   14.338350   17.267700
  C     17.646399   16.679934   17.714170
  C     17.374017   17.971497   17.386786
  C     16.462273   18.491145   16.293631
  N     18.027218   19.010110   18.059392
  C     19.059814   18.845379   18.944110
  S     19.867953   20.135134   19.591509
  N     19.388000   17.553023   19.264483
  C     18.614974   16.363937   18.860457
  C     17.875645   15.775485   20.059569
  C     18.046130   14.422664   20.407418
  C     17.367498   13.874708   21.508845
  C     16.509796   14.685938   22.270960
  C     16.334117   16.032860   21.926013
  O     15.501982   16.817390   22.656413
  C     17.010572   16.575275   20.828874
  H     15.120582   15.499475   13.728793
  H     14.732886   13.765084   13.791436
  H     16.416869   14.302822   13.971797
  H     14.130164   14.868648   15.953893
  H     15.425357   13.681872   16.209661
  H     16.724745   18.048164   15.324781
  H     16.518683   19.579969   16.175228
  H     15.416499   18.239092   16.509469
  H     17.800837   19.966386   17.837718
  H     20.131558   17.457914   19.944164
  H     19.330901   15.612863   18.496323
  H     18.695704   13.788611   19.808821
  H     17.503507   12.825113   21.763066
  H     15.982271   14.266334   23.120974
  H     15.158653   16.276697   23.383389
  H     16.862761   17.621041   20.582900

 Total Charge           Charge          ....    0
 Multiplicity           Mult            ....    1
 Number of Electrons    NEL             ....  154
 Basis Dimension        Dim             ....  828

ORBITAL ENERGIES
----------------

  NO   OCC          E(Eh)            E(eV)
   0   2.0000     -91.888001     -2500.3996
   1   2.0000     -20.604396      -560.6741
   2   2.0000     -20.590813      -560.3045
   3   2.0000     -20.544850      -559.0538
   4   2.0000     -15.628528      -425.2739
   5   2.0000     -15.606454      -424.6732
   6   2.0000     -11.396819      -310.1232
   7   2.0000     -11.382759      -309.7406
   8   2.0000     -11.337038      -308.4965
   9   2.0000     -11.306579      -307.6677
  10   2.0000     -11.304956      -307.6235
  11   2.0000     -11.299127      -307.4649
  12   2.0000     -11.260809      -306.4222
  13   2.0000     -11.258977      -306.3723
  14   2.0000     -11.252572      -306.1980
  15   2.0000     -11.246697      -306.0382
  16   2.0000     -11.236367      -305.7571
  17   2.0000     -11.232546      -305.6531
  18   2.0000     -11.231414      -305.6223
  19   2.0000     -11.229445      -305.5687
  20   2.0000      -8.893062      -241.9925
  21   2.0000      -6.574639      -178.9050
  22   2.0000      -6.572633      -178.8504
  23   2.0000      -6.572046      -178.8345
  24   2.0000      -1.453814       -39.5603
  25   2.0000      -1.410544       -38.3828
  26   2.0000      -1.357457       -36.9383
  27   2.0000      -1.339396       -36.4468
  28   2.0000      -1.236855       -33.6565
  29   2.0000      -1.151328       -31.3292
  30   2.0000      -1.119155       -30.4538
  31   2.0000      -1.043679       -28.4000
  32   2.0000      -1.036192       -28.1962
  33   2.0000      -1.008673       -27.4474
  34   2.0000      -0.997271       -27.1371
  35   2.0000      -0.982809       -26.7436
  36   2.0000      -0.920762       -25.0552
  37   2.0000      -0.891219       -24.2513
  38   2.0000      -0.847328       -23.0570
  39   2.0000      -0.834570       -22.7098
  40   2.0000      -0.826950       -22.5025
  41   2.0000      -0.817232       -22.2380
  42   2.0000      -0.760469       -20.6934
  43   2.0000      -0.735872       -20.0241
  44   2.0000      -0.724276       -19.7085
  45   2.0000      -0.689786       -18.7700
  46   2.0000      -0.684530       -18.6270
  47   2.0000      -0.679817       -18.4988
  48   2.0000      -0.672768       -18.3069
  49   2.0000      -0.654041       -17.7974
  50   2.0000      -0.649300       -17.6683
  51   2.0000      -0.642094       -17.4723
  52   2.0000      -0.630501       -17.1568
  53   2.0000      -0.611967       -16.6525
  54   2.0000      -0.599993       -16.3266
  55   2.0000      -0.598826       -16.2949
  56   2.0000      -0.594122       -16.1669
  57   2.0000      -0.583216       -15.8701
  58   2.0000      -0.572333       -15.5740
  59   2.0000      -0.563824       -15.3424
  60   2.0000      -0.561343       -15.2749
  61   2.0000      -0.544891       -14.8272
  62   2.0000      -0.538417       -14.6511
  63   2.0000      -0.531364       -14.4591
  64   2.0000      -0.516413       -14.0523
  65   2.0000      -0.509226       -13.8567
  66   2.0000      -0.500073       -13.6077
  67   2.0000      -0.494875       -13.4662
  68   2.0000      -0.480538       -13.0761
  69   2.0000      -0.463152       -12.6030
  70   2.0000      -0.458118       -12.4660
  71   2.0000      -0.454189       -12.3591
  72   2.0000      -0.354293        -9.6408
  73   2.0000      -0.343252        -9.3404
  74   2.0000      -0.327082        -8.9004
  75   2.0000      -0.315394        -8.5823
  76   2.0000      -0.312930        -8.5153
  77   0.0000       0.076008         2.0683
  78   0.0000       0.114283         3.1098
  79   0.0000       0.121192         3.2978
  80   0.0000       0.136323         3.7095
  81   0.0000       0.139864         3.8059

MULLIKEN ATOMIC CHARGES
-----------------------
   0 C :   -0.273125
   1 C :    0.020959
   2 O :   -0.344276
   3 C :    0.458311
   4 O :   -0.435142
   5 C :   -0.184190
   6 C :    0.143887
   7 C :   -0.285214
   8 N :   -0.120444
   9 C :    0.200742
  10 S :   -0.439095
  11 N :   -0.196412
  12 C :    0.032763
  13 C :    0.058536
  14 C :   -0.160464
  15 C :   -0.133919
  16 C :   -0.278652
  17 C :    0.311674
  18 O :   -0.359261
  19 C :   -0.272234
  20 H :    0.090380
  21 H :    0.095827
  22 H :    0.101478
  23 H :    0.101772
  24 H :    0.121600
  25 H :    0.126855
  26 H :    0.102506
  27 H :    0.128085
  28 H :    0.196624
  29 H :    0.193500
  30 H :    0.153474
  31 H :    0.153000
  32 H :    0.158670
  33 H :    0.127680
  34 H :    0.239953
  35 H :    0.164151
Sum of atomic charges:   -0.0000000

LOEWDIN ATOMIC CHARGES
----------------------
   0 C :    0.103727
   1 C :   -0.012263
   2 O :    0.308506
   3 C :   -0.414473
   4 O :    0.100692
   5 C :   -0.090927
   6 C :   -0.064493
   7 C :    0.124736
   8 N :    0.404964
   9 C :   -0.459183
  10 S :   -0.035843
  11 N :    0.398033
  12 C :   -0.046710
  13 C :   -0.038756
  14 C :    0.022330
  15 C :    0.040879
  16 C :   -0.002267
  17 C :   -0.192515
  18 O :    0.392924
  19 C :    0.028417
  20 H :   -0.029928
  21 H :   -0.025512
  22 H :   -0.025042
  23 H :   -0.029311
  24 H :   -0.026856
  25 H :   -0.008945
  26 H :   -0.021225
  27 H :   -0.009448
  28 H :   -0.059255
  29 H :   -0.063575
  30 H :   -0.005205
  31 H :   -0.025378
  32 H :   -0.021348
  33 H :   -0.036490
  34 H :   -0.154992
  35 H :   -0.025267

  Mayer bond orders larger than 0.100000
B(  0-C ,  1-C ) :   0.9696 B(  0-C , 20-H ) :   0.9791 B(  0-C , 21-H ) :   0.9759
B(  0-C , 22-H ) :   0.9785 B(  1-C ,  2-O ) :   0.8833 B(  1-C , 23-H ) :   0.9831
B(  1-C , 24-H ) :   0.9728 B(  2-O ,  3-C ) :   1.1697 B(  3-C ,  4-O ) :   1.9699
B(  3-C ,  5-C ) :   1.0606 B(  5-C ,  6-C ) :   1.6438 B(  5-C , 12-C ) :   0.9660
B(  6-C ,  7-C ) :   0.9550 B(  6-C ,  8-N ) :   1.1524 B(  7-C , 25-H ) :   0.9653
B(  7-C , 26-H ) :   0.9916 B(  7-C , 27-H ) :   0.9640 B(  8-N ,  9-C ) :   1.1770
B(  8-N , 28-H ) :   0.9487 B(  9-C , 10-S ) :   1.6109 B(  9-C , 11-N ) :   1.3051
B( 11-N , 12-C ) :   0.9930 B( 11-N , 29-H ) :   0.9520 B( 12-C , 13-C ) :   0.9480
B( 12-C , 30-H ) :   1.0006 B( 13-C , 14-C ) :   1.3755 B( 13-C , 19-C ) :   1.3691
B( 14-C , 15-C ) :   1.3946 B( 14-C , 31-H ) :   0.9651 B( 15-C , 16-C ) :   1.3625
B( 15-C , 32-H ) :   0.9715 B( 16-C , 17-C ) :   1.3316 B( 16-C , 33-H ) :   0.9861
B( 17-C , 18-O ) :   1.1078 B( 17-C , 19-C ) :   1.3795 B( 18-O , 34-H ) :   0.9807
B( 19-C , 35-H ) :   0.9585

MP2 TOTAL ENERGY:    -1274.348012062 Eh
FINAL SINGLE POINT ENERGY     -1274.348012062109

DIPOLE MOMENT
-------------
                                X             Y             Z
Electronic contribution:     10.47170       8.58370      12.59575
Nuclear contribution   :    -12.17592      -9.70306     -13.48855
                        -----------------------------------------
Total Dipole Moment    :     -1.70422      -1.11936      -0.89280
                        -----------------------------------------
Magnitude (a.u.)       :      2.22586
Magnitude (Debye)      :      5.65768

Rotational constants in cm-1:     0.010556     0.008615     0.005663
Rotational constants in MHz :   316.457575   258.265359   169.781049

                             ****ORCA TERMINATED NORMALLY****
TOTAL RUN TIME: 0 days 1 hours 35 minutes 44 seconds 106 msec
