                         Program Version 4.2.0 -  RELEASE  -
|  1> ! ri-mp2 cc-pvtz cc-pvtz/c TightSCF  NoKeepInts
|  2>
|  3> %scf
|  4>   MaxCore 4096
|  5> end
|  6> *xyz  0  1
|  7>     C       15.2237918   13.8480890   16.7926161
|  8>     C       16.5298285   14.0200235   15.9901653
|  9>     O       17.3088241   15.0760684   16.5810615
| 10>     C       16.9026624   16.3778625   16.4701048
| 11>     O       16.0637963   16.7338275   15.6594420
| 12>     C       17.6035883   17.2883189   17.4396071
| 13>     C       17.4415407   18.6355572   17.4215930
| 14>     C       16.5830568   19.4422546   16.4710517
| 15>     N       18.1339509   19.4374828   18.3336869
| 16>     C       19.0610346   18.9824886   19.2327894
| 17>     S       19.8928025   20.0099899   20.2269645
| 18>     N       19.2669823   17.6270064   19.2676279
| 19>     C       18.5003256   16.6287117   18.5000137
| 20>     C       17.6963515   15.7489614   19.4534389
| 21>     C       18.0274125   14.3912587   19.6218287
| 22>     C       17.2823490   13.5759549   20.4903364
| 23>     C       16.1985469   14.1228089   21.1982825
| 24>     C       15.8692094   15.4755956   21.0366896
| 25>     O       14.8237212   16.0065930   21.7192580
| 26>     C       16.6127633   16.2845638   20.1719995
| 27>     H       15.4411379   13.6905675   17.8567011
| 28>     H       14.6605721   12.9817985   16.4256173
| 29>     H       14.5809655   14.7321512   16.6983593
| 30>     H       17.1009020   13.0837361   16.0293534
| 31>     H       16.3064539   14.2413396   14.9374862
| 32>     H       16.8731967   19.2496804   15.4303406
| 33>     H       16.6554594   20.5230960   16.6393286
| 34>     H       15.5271982   19.1604703   16.5733640
| 35>     H       17.9955891   20.4353714   18.3232583
| 36>     H       19.9271652   17.3184239   19.9695983
| 37>     H       19.2275462   15.9954871   17.9726351
| 38>     H       18.8602476   13.9643150   19.0696211
| 39>     H       17.5447221   12.5264608   20.6117480
| 40>     H       15.6199192   13.4973215   21.8700167
| 41>     H       14.4581516   15.3080237   22.2824112
| 42>     H       16.3452345   17.3303399   20.0656034
| 43> *
| 44>
| 45>                          ****END OF INPUT****

CARTESIAN COORDINATES (ANGSTROEM)
---------------------------------
  C     15.223792   13.848089   16.792616
  C     16.529829   14.020024   15.990165
  O     17.308824   15.076068   16.581062
  C     16.902662   16.377862   16.470105
  O     16.063796   16.733828   15.659442
  C     17.603588   17.288319   17.439607
  C     17.441541   18.635557   17.421593
  C     16.583057   19.442255   16.471052
  N     18.133951   19.437483   18.333687
  C     19.061035   18.982489   19.232789
  S     19.892802   20.009990   20.226964
  N     19.266982   17.627006   19.267628
  C     18.500326   16.628712   18.500014
  C     17.696351   15.748961   19.453439
  C     18.027413   14.391259   19.621829
  C     17.282349   13.575955   20.490336
  C     16.198547   14.122809   21.198283
  C     15.869209   15.475596   21.036690
  O     14.823721   16.006593   21.719258
  C     16.612763   16.284564   20.171999
  H     15.441138   13.690568   17.856701
  H     14.660572   12.981799   16.425617
  H     14.580965   14.732151   16.698359
  H     17.100902   13.083736   16.029353
  H     16.306454   14.241340   14.937486
  H     16.873197   19.249680   15.430341
  H     16.655459   20.523096   16.639329
  H     15.527198   19.160470   16.573364
  H     17.995589   20.435371   18.323258
  H     19.927165   17.318424   19.969598
  H     19.227546   15.995487   17.972635
  H     18.860248   13.964315   19.069621
  H     17.544722   12.526461   20.611748
  H     15.619919   13.497321   21.870017
  H     14.458152   15.308024   22.282411
  H     16.345235   17.330340   20.065603

 Total Charge           Charge          ....    0
 Multiplicity           Mult            ....    1
 Number of Electrons    NEL             ....  154
 Basis Dimension        Dim             ....  828

ORBITAL ENERGIES
----------------

  NO   OCC          E(Eh)            E(eV)
   0   2.0000     -91.888824     -2500.4220
   1   2.0000     -20.600071      -560.5564
   2   2.0000     -20.597083      -560.4751
   3   2.0000     -20.541603      -558.9654
   4   2.0000     -15.628982      -425.2862
   5   2.0000     -15.608328      -424.7242
   6   2.0000     -11.395138      -310.0775
   7   2.0000     -11.384046      -309.7756
   8   2.0000     -11.335961      -308.4672
   9   2.0000     -11.314434      -307.8814
  10   2.0000     -11.308904      -307.7309
  11   2.0000     -11.296840      -307.4027
  12   2.0000     -11.260090      -306.4026
  13   2.0000     -11.258865      -306.3693
  14   2.0000     -11.255677      -306.2825
  15   2.0000     -11.252089      -306.1849
  16   2.0000     -11.243790      -305.9591
  17   2.0000     -11.239078      -305.8309
  18   2.0000     -11.238551      -305.8165
  19   2.0000     -11.221417      -305.3503
  20   2.0000      -8.893888      -242.0150
  21   2.0000      -6.575464      -178.9275
  22   2.0000      -6.573458      -178.8729
  23   2.0000      -6.572872      -178.8569
  24   2.0000      -1.450490       -39.4698
  25   2.0000      -1.416763       -38.5521
  26   2.0000      -1.354197       -36.8496
  27   2.0000      -1.339951       -36.4619
  28   2.0000      -1.238507       -33.7015
  29   2.0000      -1.158240       -31.5173
  30   2.0000      -1.120659       -30.4947
  31   2.0000      -1.043084       -28.3838
  32   2.0000      -1.034691       -28.1554
  33   2.0000      -1.015631       -27.6367
  34   2.0000      -0.995328       -27.0843
  35   2.0000      -0.984209       -26.7817
  36   2.0000      -0.922697       -25.1079
  37   2.0000      -0.894579       -24.3427
  38   2.0000      -0.847058       -23.0496
  39   2.0000      -0.838051       -22.8045
  40   2.0000      -0.834519       -22.7084
  41   2.0000      -0.815644       -22.1948
  42   2.0000      -0.754506       -20.5311
  43   2.0000      -0.732864       -19.9422
  44   2.0000      -0.723291       -19.6817
  45   2.0000      -0.696236       -18.9455
  46   2.0000      -0.688761       -18.7422
  47   2.0000      -0.678535       -18.4639
  48   2.0000      -0.670894       -18.2560
  49   2.0000      -0.660735       -17.9795
  50   2.0000      -0.648666       -17.6511
  51   2.0000      -0.641069       -17.4444
  52   2.0000      -0.632049       -17.1989
  53   2.0000      -0.611636       -16.6435
  54   2.0000      -0.607269       -16.5246
  55   2.0000      -0.600213       -16.3326
  56   2.0000      -0.599045       -16.3008
  57   2.0000      -0.577907       -15.7256
  58   2.0000      -0.570733       -15.5304
  59   2.0000      -0.568129       -15.4596
  60   2.0000      -0.559632       -15.2284
  61   2.0000      -0.543397       -14.7866
  62   2.0000      -0.533676       -14.5221
  63   2.0000      -0.528173       -14.3723
  64   2.0000      -0.525159       -14.2903
  65   2.0000      -0.513257       -13.9664
  66   2.0000      -0.501437       -13.6448
  67   2.0000      -0.499785       -13.5999
  68   2.0000      -0.481431       -13.1004
  69   2.0000      -0.464496       -12.6396
  70   2.0000      -0.454682       -12.3725
  71   2.0000      -0.446521       -12.1505
  72   2.0000      -0.354217        -9.6387
  73   2.0000      -0.350115        -9.5271
  74   2.0000      -0.328278        -8.9329
  75   2.0000      -0.321861        -8.7583
  76   2.0000      -0.316218        -8.6047
  77   0.0000       0.076313         2.0766
  78   0.0000       0.106026         2.8851
  79   0.0000       0.124994         3.4013
  80   0.0000       0.132434         3.6037
  81   0.0000       0.138242         3.7617

MULLIKEN ATOMIC CHARGES
-----------------------
   0 C :   -0.306526
   1 C :    0.018969
   2 O :   -0.357501
   3 C :    0.467440
   4 O :   -0.436145
   5 C :   -0.226899
   6 C :    0.153215
   7 C :   -0.273046
   8 N :   -0.120803
   9 C :    0.212188
  10 S :   -0.440403
  11 N :   -0.206080
  12 C :    0.063323
  13 C :    0.058610
  14 C :   -0.186746
  15 C :   -0.136986
  16 C :   -0.276687
  17 C :    0.314047
  18 O :   -0.356473
  19 C :   -0.262209
  20 H :    0.108722
  21 H :    0.098064
  22 H :    0.113836
  23 H :    0.112604
  24 H :    0.116122
  25 H :    0.131004
  26 H :    0.095324
  27 H :    0.131971
  28 H :    0.197066
  29 H :    0.195132
  30 H :    0.150392
  31 H :    0.150396
  32 H :    0.160683
  33 H :    0.130748
  34 H :    0.240735
  35 H :    0.165913
Sum of atomic charges:   -0.0000000

LOEWDIN ATOMIC CHARGES
----------------------
   0 C :    0.105008
   1 C :   -0.017900
   2 O :    0.306671
   3 C :   -0.413552
   4 O :    0.095940
   5 C :   -0.094162
   6 C :   -0.059287
   7 C :    0.131640
   8 N :    0.406569
   9 C :   -0.456072
  10 S :   -0.035764
  11 N :    0.396466
  12 C :   -0.051869
  13 C :   -0.039184
  14 C :    0.013818
  15 C :    0.038795
  16 C :   -0.002163
  17 C :   -0.189716
  18 O :    0.395636
  19 C :    0.031813
  20 H :   -0.026202
  21 H :   -0.027867
  22 H :   -0.025860
  23 H :   -0.025494
  24 H :   -0.027849
  25 H :   -0.003907
  26 H :   -0.023383
  27 H :   -0.004646
  28 H :   -0.057573
  29 H :   -0.064541
  30 H :   -0.011237
  31 H :   -0.029992
  32 H :   -0.021378
  33 H :   -0.035439
  34 H :   -0.153794
  35 H :   -0.023525

  Mayer bond orders larger than 0.100000
B(  0-C ,  1-C ) :   0.9593 B(  0-C , 20-H ) :   0.9706 B(  0-C , 21-H ) :   0.9776
B(  0-C , 22-H ) :   0.9757 B(  1-C ,  2-O ) :   0.8947 B(  1-C , 23-H ) :   0.9846
B(  1-C , 24-H ) :   0.9812 B(  2-O ,  3-C ) :   1.1626 B(  3-C ,  4-O ) :   1.9643
B(  3-C ,  5-C ) :   1.0614 B(  5-C ,  6-C ) :   1.6546 B(  5-C , 12-C ) :   0.9720
B(  6-C ,  7-C ) :   0.9661 B(  6-C ,  8-N ) :   1.1656 B(  7-C , 25-H ) :   0.9606
B(  7-C , 26-H ) :   0.9904 B(  7-C , 27-H ) :   0.9602 B(  8-N ,  9-C ) :   1.1835
B(  8-N , 28-H ) :   0.9478 B(  9-C , 10-S ) :   1.6064 B(  9-C , 11-N ) :   1.3059
B( 11-N , 12-C ) :   0.9870 B( 11-N , 29-H ) :   0.9513 B( 12-C , 13-C ) :   0.9354
B( 12-C , 30-H ) :   1.0019 B( 13-C , 14-C ) :   1.3546 B( 13-C , 19-C ) :   1.3835
B( 14-C , 15-C ) :   1.3921 B( 14-C , 31-H ) :   0.9720 B( 15-C , 16-C ) :   1.3593
B( 15-C , 32-H ) :   0.9715 B( 16-C , 17-C ) :   1.3316 B( 16-C , 33-H ) :   0.9851
B( 17-C , 18-O ) :   1.1109 B( 17-C , 19-C ) :   1.3706 B( 18-O , 34-H ) :   0.9798
B( 19-C , 35-H ) :   0.9577

MP2 TOTAL ENERGY:    -1274.351657289 Eh
FINAL SINGLE POINT ENERGY     -1274.351657288738

DIPOLE MOMENT
-------------
                                X             Y             Z
Electronic contribution:      9.40624      10.67772       7.12568
Nuclear contribution   :    -10.28788     -12.44772      -7.52866
                        -----------------------------------------
Total Dipole Moment    :     -0.88164      -1.77001      -0.40298
                        -----------------------------------------
Magnitude (a.u.)       :      2.01807
Magnitude (Debye)      :      5.12953

Rotational constants in cm-1:     0.012339     0.008682     0.006294
Rotational constants in MHz :   369.917410   260.274625   188.687506

                             ****ORCA TERMINATED NORMALLY****
TOTAL RUN TIME: 0 days 1 hours 40 minutes 54 seconds 928 msec
