                         Program Version 5.0.0 -  RELEASE  -
|  1> ! ri-mp2 cc-pvtz cc-pvtz/c TightSCF NoKeepInts
|  2>
|  3> %scf
|  4>   MaxCore 4096
|  5> end
|  6> *xyz  0  1
|  7>     C       14.5448390   16.0796863   16.7623227
|  8>     C       15.6393314   15.0119244   16.9405140
|  9>     O       16.7306052   15.2084677   16.0145023
| 10>     C       17.9384779   15.7374647   16.3939176
| 11>     O       18.9455540   15.0653392   16.2685095
| 12>     C       17.8858352   16.8582865   17.3799966
| 13>     C       17.2935284   18.0407189   17.0917452
| 14>     C       16.6444186   18.4465721   15.7846450
| 15>     N       17.3632446   19.0948266   18.0050987
| 16>     C       18.1153016   19.0850757   19.1508398
| 17>     S       18.2080729   20.4063195   20.1406214
| 18>     N       18.7915736   17.9239796   19.4343999
| 19>     C       18.6741398   16.6617218   18.6770637
| 20>     C       18.0586912   15.5571754   19.5306486
| 21>     C       18.5650145   14.2465828   19.4571836
| 22>     C       17.9908712   13.2127030   20.2151657
| 23>     C       16.8982110   13.4895985   21.0540300
| 24>     C       16.3868416   14.7920994   21.1270679
| 25>     O       15.3229458   15.0601820   21.9248123
| 26>     C       16.9589115   15.8193544   20.3698260
| 27>     H       14.7938407   16.9987769   17.3019268
| 28>     H       13.5955467   15.7130418   17.1719336
| 29>     H       14.3878486   16.3105627   15.7013854
| 30>     H       15.9828233   14.9709761   17.9801112
| 31>     H       15.1902232   14.0354386   16.7171287
| 32>     H       16.5457026   17.6114797   15.0817752
| 33>     H       17.2448747   19.2150266   15.2813770
| 34>     H       15.6411993   18.8587324   15.9475386
| 35>     H       16.8957953   19.9644449   17.8018279
| 36>     H       19.3267476   17.9411329   20.2934634
| 37>     H       19.6914447   16.3461037   18.4015084
| 38>     H       19.4006552   14.0257317   18.7958515
| 39>     H       18.3913097   12.2024941   20.1461221
| 40>     H       16.4510069   12.6930772   21.6397483
| 41>     H       15.1111001   14.2487249   22.4108416
| 42>     H       16.5404724   16.8181773   20.4385497
| 43> *
| 44>
| 45>                          ****END OF INPUT****

CARTESIAN COORDINATES (ANGSTROEM)
---------------------------------
  C     14.544839   16.079686   16.762323
  C     15.639331   15.011924   16.940514
  O     16.730605   15.208468   16.014502
  C     17.938478   15.737465   16.393918
  O     18.945554   15.065339   16.268510
  C     17.885835   16.858286   17.379997
  C     17.293528   18.040719   17.091745
  C     16.644419   18.446572   15.784645
  N     17.363245   19.094827   18.005099
  C     18.115302   19.085076   19.150840
  S     18.208073   20.406319   20.140621
  N     18.791574   17.923980   19.434400
  C     18.674140   16.661722   18.677064
  C     18.058691   15.557175   19.530649
  C     18.565015   14.246583   19.457184
  C     17.990871   13.212703   20.215166
  C     16.898211   13.489598   21.054030
  C     16.386842   14.792099   21.127068
  O     15.322946   15.060182   21.924812
  C     16.958911   15.819354   20.369826
  H     14.793841   16.998777   17.301927
  H     13.595547   15.713042   17.171934
  H     14.387849   16.310563   15.701385
  H     15.982823   14.970976   17.980111
  H     15.190223   14.035439   16.717129
  H     16.545703   17.611480   15.081775
  H     17.244875   19.215027   15.281377
  H     15.641199   18.858732   15.947539
  H     16.895795   19.964445   17.801828
  H     19.326748   17.941133   20.293463
  H     19.691445   16.346104   18.401508
  H     19.400655   14.025732   18.795852
  H     18.391310   12.202494   20.146122
  H     16.451007   12.693077   21.639748
  H     15.111100   14.248725   22.410842
  H     16.540472   16.818177   20.438550

 Total Charge           Charge          ....    0
 Multiplicity           Mult            ....    1
 Number of Electrons    NEL             ....  154
 Basis Dimension        Dim             ....  828

ORBITAL ENERGIES
----------------

  NO   OCC          E(Eh)            E(eV)
   0   2.0000     -91.890926     -2500.4792
   1   2.0000     -20.600934      -560.5799
   2   2.0000     -20.588399      -560.2388
   3   2.0000     -20.554054      -559.3043
   4   2.0000     -15.628270      -425.2669
   5   2.0000     -15.611945      -424.8226
   6   2.0000     -11.396665      -310.1190
   7   2.0000     -11.387390      -309.8666
   8   2.0000     -11.332023      -308.3600
   9   2.0000     -11.318405      -307.9895
  10   2.0000     -11.314845      -307.8926
  11   2.0000     -11.301562      -307.5311
  12   2.0000     -11.264937      -306.5345
  13   2.0000     -11.264684      -306.5276
  14   2.0000     -11.264393      -306.5197
  15   2.0000     -11.258553      -306.3608
  16   2.0000     -11.247643      -306.0639
  17   2.0000     -11.243259      -305.9446
  18   2.0000     -11.240255      -305.8629
  19   2.0000     -11.234036      -305.6937
  20   2.0000      -8.896020      -242.0730
  21   2.0000      -6.577604      -178.9857
  22   2.0000      -6.575584      -178.9307
  23   2.0000      -6.575003      -178.9149
  24   2.0000      -1.446143       -39.3516
  25   2.0000      -1.420769       -38.6611
  26   2.0000      -1.356644       -36.9162
  27   2.0000      -1.341479       -36.5035
  28   2.0000      -1.240870       -33.7658
  29   2.0000      -1.162440       -31.6316
  30   2.0000      -1.125632       -30.6300
  31   2.0000      -1.049225       -28.5509
  32   2.0000      -1.037689       -28.2370
  33   2.0000      -1.020071       -27.7575
  34   2.0000      -1.004612       -27.3369
  35   2.0000      -0.990307       -26.9476
  36   2.0000      -0.928212       -25.2579
  37   2.0000      -0.889041       -24.1920
  38   2.0000      -0.852878       -23.2080
  39   2.0000      -0.842714       -22.9314
  40   2.0000      -0.838085       -22.8054
  41   2.0000      -0.833958       -22.6932
  42   2.0000      -0.755594       -20.5608
  43   2.0000      -0.735736       -20.0204
  44   2.0000      -0.731944       -19.9172
  45   2.0000      -0.698804       -19.0154
  46   2.0000      -0.689393       -18.7593
  47   2.0000      -0.680085       -18.5061
  48   2.0000      -0.676036       -18.3959
  49   2.0000      -0.663405       -18.0522
  50   2.0000      -0.654356       -17.8059
  51   2.0000      -0.641333       -17.4516
  52   2.0000      -0.635076       -17.2813
  53   2.0000      -0.616848       -16.7853
  54   2.0000      -0.609416       -16.5831
  55   2.0000      -0.607885       -16.5414
  56   2.0000      -0.604417       -16.4470
  57   2.0000      -0.585616       -15.9354
  58   2.0000      -0.580795       -15.8042
  59   2.0000      -0.577193       -15.7062
  60   2.0000      -0.565939       -15.4000
  61   2.0000      -0.557313       -15.1652
  62   2.0000      -0.541066       -14.7232
  63   2.0000      -0.530162       -14.4264
  64   2.0000      -0.522947       -14.2301
  65   2.0000      -0.515314       -14.0224
  66   2.0000      -0.503319       -13.6960
  67   2.0000      -0.493539       -13.4299
  68   2.0000      -0.488507       -13.2929
  69   2.0000      -0.467817       -12.7299
  70   2.0000      -0.456717       -12.4279
  71   2.0000      -0.449381       -12.2283
  72   2.0000      -0.358369        -9.7517
  73   2.0000      -0.352907        -9.6031
  74   2.0000      -0.330500        -8.9934
  75   2.0000      -0.326298        -8.8790
  76   2.0000      -0.319940        -8.7060
  77   0.0000       0.081742         2.2243
  78   0.0000       0.101613         2.7650
  79   0.0000       0.117040         3.1848
  80   0.0000       0.127118         3.4590
  81   0.0000       0.129199         3.5157

MULLIKEN ATOMIC CHARGES
-----------------------
   0 C :   -0.308406
   1 C :    0.025623
   2 O :   -0.345829
   3 C :    0.418600
   4 O :   -0.373180
   5 C :   -0.179055
   6 C :    0.106428
   7 C :   -0.327220
   8 N :   -0.130831
   9 C :    0.197824
  10 S :   -0.438799
  11 N :   -0.216343
  12 C :    0.076607
  13 C :    0.003568
  14 C :   -0.191522
  15 C :   -0.137380
  16 C :   -0.272798
  17 C :    0.311451
  18 O :   -0.356831
  19 C :   -0.257889
  20 H :    0.090125
  21 H :    0.120289
  22 H :    0.105635
  23 H :    0.108905
  24 H :    0.124815
  25 H :    0.129083
  26 H :    0.149075
  27 H :    0.117869
  28 H :    0.197477
  29 H :    0.199146
  30 H :    0.165058
  31 H :    0.173112
  32 H :    0.164695
  33 H :    0.133730
  34 H :    0.241561
  35 H :    0.175409
Sum of atomic charges:   -0.0000000

LOEWDIN ATOMIC CHARGES
----------------------
   0 C :    0.104282
   1 C :   -0.013386
   2 O :    0.285879
   3 C :   -0.416471
   4 O :    0.131819
   5 C :   -0.085461
   6 C :   -0.094306
   7 C :    0.125037
   8 N :    0.403401
   9 C :   -0.457007
  10 S :   -0.036065
  11 N :    0.397276
  12 C :   -0.043973
  13 C :   -0.045741
  14 C :    0.020010
  15 C :    0.045086
  16 C :   -0.000350
  17 C :   -0.194337
  18 O :    0.395727
  19 C :    0.025598
  20 H :   -0.034783
  21 H :   -0.021944
  22 H :   -0.026119
  23 H :   -0.031271
  24 H :   -0.021376
  25 H :   -0.010755
  26 H :   -0.009672
  27 H :   -0.017211
  28 H :   -0.056816
  29 H :   -0.063696
  30 H :   -0.002637
  31 H :   -0.021627
  32 H :   -0.018066
  33 H :   -0.034287
  34 H :   -0.152798
  35 H :   -0.023959

  Mayer bond orders larger than 0.100000
B(  0-C ,  1-C ) :   0.9606 B(  0-C , 20-H ) :   0.9767 B(  0-C , 21-H ) :   0.9788
B(  0-C , 22-H ) :   0.9746 B(  1-C ,  2-O ) :   0.8944 B(  1-C , 23-H ) :   0.9635
B(  1-C , 24-H ) :   0.9876 B(  2-O ,  3-C ) :   1.1514 B(  3-C ,  4-O ) :   2.0946
B(  3-C ,  5-C ) :   0.9255 B(  5-C ,  6-C ) :   1.6882 B(  5-C , 12-C ) :   0.9513
B(  6-C ,  7-C ) :   0.9536 B(  6-C ,  8-N ) :   1.1057 B(  7-C , 25-H ) :   0.9765
B(  7-C , 26-H ) :   0.9655 B(  7-C , 27-H ) :   0.9675 B(  8-N ,  9-C ) :   1.1937
B(  8-N , 28-H ) :   0.9509 B(  9-C , 10-S ) :   1.6135 B(  9-C , 11-N ) :   1.2891
B( 11-N , 12-C ) :   0.9926 B( 11-N , 29-H ) :   0.9490 B( 12-C , 13-C ) :   0.9486
B( 12-C , 30-H ) :   0.9975 B( 13-C , 14-C ) :   1.3932 B( 13-C , 19-C ) :   1.3439
B( 14-C , 15-C ) :   1.3965 B( 14-C , 31-H ) :   0.9585 B( 15-C , 16-C ) :   1.3635
B( 15-C , 32-H ) :   0.9698 B( 16-C , 17-C ) :   1.3289 B( 16-C , 33-H ) :   0.9839
B( 17-C , 18-O ) :   1.1122 B( 17-C , 19-C ) :   1.3685 B( 18-O , 34-H ) :   0.9790
B( 19-C , 35-H ) :   0.9594

MP2 TOTAL ENERGY:    -1274.326395250 Eh
FINAL SINGLE POINT ENERGY     -1274.326395249653

DIPOLE MOMENT
-------------
                                X             Y             Z
Electronic contribution:     10.45230       5.33244       6.66218
Nuclear contribution   :    -11.82293      -6.50182      -6.93368
                        -----------------------------------------
Total Dipole Moment    :     -1.37063      -1.16939      -0.27151
                        -----------------------------------------
Magnitude (a.u.)       :      1.82203
Magnitude (Debye)      :      4.63123

Rotational constants in cm-1:     0.011752     0.009403     0.006952
Rotational constants in MHz :   352.315870   281.882706   208.430070

                             ****ORCA TERMINATED NORMALLY****
TOTAL RUN TIME: 0 days 2 hours 53 minutes 24 seconds 997 msec
