                         Program Version 5.0.0 -  RELEASE  -
|  1> ! ri-mp2 cc-pvtz cc-pvtz/c TightSCF NoKeepInts
|  2>
|  3> %scf
|  4>   MaxCore 4096
|  5> end
|  6> *xyz  0  1
|  7>     C       15.1790402   14.2833306   14.5384556
|  8>     C       15.1904539   14.6887741   16.0220937
|  9>     O       16.1441634   15.7567019   16.1720962
| 10>     C       17.2790378   15.5591041   16.9051459
| 11>     O       17.7199576   14.4444053   17.1333841
| 12>     C       17.7541584   16.7753140   17.6480377
| 13>     C       17.4287445   18.0570178   17.3340043
| 14>     C       16.5584606   18.5475497   16.1948508
| 15>     N       17.9834127   19.1129194   18.0650620
| 16>     C       18.9720758   18.9822222   19.0042037
| 17>     S       19.6658057   20.2972859   19.7287476
| 18>     N       19.3569098   17.7020687   19.3115586
| 19>     C       18.6810991   16.4814433   18.8333318
| 20>     C       17.9182475   15.8123327   19.9739195
| 21>     C       18.1558643   14.4629741   20.2947058
| 22>     C       17.4550304   13.8409348   21.3415232
| 23>     C       16.5070914   14.5738027   22.0756278
| 24>     C       16.2644480   15.9168440   21.7571485
| 25>     O       15.3451846   16.6255214   22.4600795
| 26>     C       16.9631647   16.5330534   20.7142766
| 27>     H       14.9278159   15.1412137   13.9025869
| 28>     H       14.4387146   13.4938564   14.3609908
| 29>     H       16.1634626   13.9033715   14.2370717
| 30>     H       14.1929957   15.0470431   16.3072385
| 31>     H       15.4312461   13.8219175   16.6528460
| 32>     H       16.8563525   18.0809481   15.2475270
| 33>     H       16.6214872   19.6329580   16.0508098
| 34>     H       15.5055623   18.2990852   16.3774822
| 35>     H       17.7144835   20.0604795   17.8534878
| 36>     H       20.0655660   17.6311054   20.0303746
| 37>     H       19.4590883   15.7863402   18.4857452
| 38>     H       18.8761321   13.8890007   19.7167153
| 39>     H       17.6442332   12.7948019   21.5752454
| 40>     H       15.9623810   14.0968196   22.8835164
| 41>     H       15.0027723   16.0450145   23.1561632
| 42>     H       16.7623564   17.5744448   20.4879460
| 43> *
| 44>
| 45>                          ****END OF INPUT****

CARTESIAN COORDINATES (ANGSTROEM)
---------------------------------
  C     15.179040   14.283331   14.538456
  C     15.190454   14.688774   16.022094
  O     16.144163   15.756702   16.172096
  C     17.279038   15.559104   16.905146
  O     17.719958   14.444405   17.133384
  C     17.754158   16.775314   17.648038
  C     17.428745   18.057018   17.334004
  C     16.558461   18.547550   16.194851
  N     17.983413   19.112919   18.065062
  C     18.972076   18.982222   19.004204
  S     19.665806   20.297286   19.728748
  N     19.356910   17.702069   19.311559
  C     18.681099   16.481443   18.833332
  C     17.918247   15.812333   19.973920
  C     18.155864   14.462974   20.294706
  C     17.455030   13.840935   21.341523
  C     16.507091   14.573803   22.075628
  C     16.264448   15.916844   21.757148
  O     15.345185   16.625521   22.460079
  C     16.963165   16.533053   20.714277
  H     14.927816   15.141214   13.902587
  H     14.438715   13.493856   14.360991
  H     16.163463   13.903372   14.237072
  H     14.192996   15.047043   16.307239
  H     15.431246   13.821917   16.652846
  H     16.856352   18.080948   15.247527
  H     16.621487   19.632958   16.050810
  H     15.505562   18.299085   16.377482
  H     17.714484   20.060479   17.853488
  H     20.065566   17.631105   20.030375
  H     19.459088   15.786340   18.485745
  H     18.876132   13.889001   19.716715
  H     17.644233   12.794802   21.575245
  H     15.962381   14.096820   22.883516
  H     15.002772   16.045015   23.156163
  H     16.762356   17.574445   20.487946

 Total Charge           Charge          ....    0
 Multiplicity           Mult            ....    1
 Number of Electrons    NEL             ....  154
 Basis Dimension        Dim             ....  828

ORBITAL ENERGIES
----------------

  NO   OCC          E(Eh)            E(eV)
   0   2.0000     -91.888064     -2500.4013
   1   2.0000     -20.600561      -560.5698
   2   2.0000     -20.591797      -560.3313
   3   2.0000     -20.547231      -559.1186
   4   2.0000     -15.628376      -425.2697
   5   2.0000     -15.606753      -424.6813
   6   2.0000     -11.396571      -310.1165
   7   2.0000     -11.383002      -309.7472
   8   2.0000     -11.336017      -308.4687
   9   2.0000     -11.307644      -307.6966
  10   2.0000     -11.305765      -307.6455
  11   2.0000     -11.299293      -307.4694
  12   2.0000     -11.260515      -306.4142
  13   2.0000     -11.259077      -306.3751
  14   2.0000     -11.253587      -306.2257
  15   2.0000     -11.247809      -306.0685
  16   2.0000     -11.237435      -305.7861
  17   2.0000     -11.233544      -305.6803
  18   2.0000     -11.230567      -305.5993
  19   2.0000     -11.229023      -305.5573
  20   2.0000      -8.893130      -241.9944
  21   2.0000      -6.574707      -178.9069
  22   2.0000      -6.572700      -178.8523
  23   2.0000      -6.572114      -178.8363
  24   2.0000      -1.453726       -39.5579
  25   2.0000      -1.411530       -38.4097
  26   2.0000      -1.357530       -36.9403
  27   2.0000      -1.339317       -36.4447
  28   2.0000      -1.236965       -33.6595
  29   2.0000      -1.152245       -31.3542
  30   2.0000      -1.119615       -30.4663
  31   2.0000      -1.043284       -28.3892
  32   2.0000      -1.035789       -28.1852
  33   2.0000      -1.009612       -27.4729
  34   2.0000      -0.997491       -27.1431
  35   2.0000      -0.982928       -26.7468
  36   2.0000      -0.921216       -25.0676
  37   2.0000      -0.889168       -24.1955
  38   2.0000      -0.847497       -23.0616
  39   2.0000      -0.835445       -22.7336
  40   2.0000      -0.828004       -22.5311
  41   2.0000      -0.819238       -22.2926
  42   2.0000      -0.759062       -20.6551
  43   2.0000      -0.735681       -20.0189
  44   2.0000      -0.725088       -19.7306
  45   2.0000      -0.690594       -18.7920
  46   2.0000      -0.685133       -18.6434
  47   2.0000      -0.680134       -18.5074
  48   2.0000      -0.672247       -18.2928
  49   2.0000      -0.655786       -17.8448
  50   2.0000      -0.647152       -17.6099
  51   2.0000      -0.641632       -17.4597
  52   2.0000      -0.628353       -17.0984
  53   2.0000      -0.616388       -16.7728
  54   2.0000      -0.600520       -16.3410
  55   2.0000      -0.599948       -16.3254
  56   2.0000      -0.595079       -16.1929
  57   2.0000      -0.582906       -15.8617
  58   2.0000      -0.573289       -15.6000
  59   2.0000      -0.564113       -15.3503
  60   2.0000      -0.561275       -15.2731
  61   2.0000      -0.545945       -14.8559
  62   2.0000      -0.533609       -14.5202
  63   2.0000      -0.529399       -14.4057
  64   2.0000      -0.517309       -14.0767
  65   2.0000      -0.509803       -13.8725
  66   2.0000      -0.500685       -13.6243
  67   2.0000      -0.495491       -13.4830
  68   2.0000      -0.480601       -13.0778
  69   2.0000      -0.462579       -12.5874
  70   2.0000      -0.458583       -12.4787
  71   2.0000      -0.454279       -12.3616
  72   2.0000      -0.354124        -9.6362
  73   2.0000      -0.344101        -9.3635
  74   2.0000      -0.327202        -8.9036
  75   2.0000      -0.315659        -8.5895
  76   2.0000      -0.313944        -8.5428
  77   0.0000       0.075388         2.0514
  78   0.0000       0.112560         3.0629
  79   0.0000       0.121106         3.2955
  80   0.0000       0.135683         3.6921
  81   0.0000       0.139771         3.8034

MULLIKEN ATOMIC CHARGES
-----------------------
   0 C :   -0.270144
   1 C :    0.030646
   2 O :   -0.351906
   3 C :    0.447712
   4 O :   -0.426155
   5 C :   -0.177336
   6 C :    0.144593
   7 C :   -0.284569
   8 N :   -0.122751
   9 C :    0.201307
  10 S :   -0.439395
  11 N :   -0.197366
  12 C :    0.037567
  13 C :    0.055625
  14 C :   -0.162106
  15 C :   -0.134105
  16 C :   -0.279057
  17 C :    0.311385
  18 O :   -0.359060
  19 C :   -0.271950
  20 H :    0.090354
  21 H :    0.092339
  22 H :    0.103481
  23 H :    0.100493
  24 H :    0.114174
  25 H :    0.126551
  26 H :    0.102556
  27 H :    0.127034
  28 H :    0.196841
  29 H :    0.193721
  30 H :    0.153737
  31 H :    0.153779
  32 H :    0.159193
  33 H :    0.128089
  34 H :    0.240062
  35 H :    0.164660
Sum of atomic charges:   -0.0000000

LOEWDIN ATOMIC CHARGES
----------------------
   0 C :    0.104191
   1 C :   -0.012837
   2 O :    0.305460
   3 C :   -0.414434
   4 O :    0.105323
   5 C :   -0.091354
   6 C :   -0.066690
   7 C :    0.125006
   8 N :    0.404752
   9 C :   -0.458812
  10 S :   -0.036076
  11 N :    0.397759
  12 C :   -0.046279
  13 C :   -0.038970
  14 C :    0.021817
  15 C :    0.040698
  16 C :   -0.002352
  17 C :   -0.192633
  18 O :    0.393006
  19 C :    0.028490
  20 H :   -0.029687
  21 H :   -0.026635
  22 H :   -0.024135
  23 H :   -0.029654
  24 H :   -0.026294
  25 H :   -0.008552
  26 H :   -0.020829
  27 H :   -0.009676
  28 H :   -0.059103
  29 H :   -0.063709
  30 H :   -0.004967
  31 H :   -0.025287
  32 H :   -0.021236
  33 H :   -0.036397
  34 H :   -0.154883
  35 H :   -0.025020

  Mayer bond orders larger than 0.100000
B(  0-C ,  1-C ) :   0.9713 B(  0-C , 20-H ) :   0.9790 B(  0-C , 21-H ) :   0.9760
B(  0-C , 22-H ) :   0.9778 B(  1-C ,  2-O ) :   0.8865 B(  1-C , 23-H ) :   0.9819
B(  1-C , 24-H ) :   0.9725 B(  2-O ,  3-C ) :   1.1416 B(  3-C ,  4-O ) :   1.9839
B(  3-C ,  5-C ) :   1.0524 B(  5-C ,  6-C ) :   1.6521 B(  5-C , 12-C ) :   0.9646
B(  6-C ,  7-C ) :   0.9539 B(  6-C ,  8-N ) :   1.1451 B(  7-C , 25-H ) :   0.9668
B(  7-C , 26-H ) :   0.9910 B(  7-C , 27-H ) :   0.9636 B(  8-N ,  9-C ) :   1.1795
B(  8-N , 28-H ) :   0.9489 B(  9-C , 10-S ) :   1.6106 B(  9-C , 11-N ) :   1.3037
B( 11-N , 12-C ) :   0.9918 B( 11-N , 29-H ) :   0.9519 B( 12-C , 13-C ) :   0.9476
B( 12-C , 30-H ) :   0.9996 B( 13-C , 14-C ) :   1.3758 B( 13-C , 19-C ) :   1.3695
B( 14-C , 15-C ) :   1.3945 B( 14-C , 31-H ) :   0.9648 B( 15-C , 16-C ) :   1.3627
B( 15-C , 32-H ) :   0.9714 B( 16-C , 17-C ) :   1.3314 B( 16-C , 33-H ) :   0.9860
B( 17-C , 18-O ) :   1.1080 B( 17-C , 19-C ) :   1.3788 B( 18-O , 34-H ) :   0.9806
B( 19-C , 35-H ) :   0.9585

MP2 TOTAL ENERGY:    -1274.343239471 Eh
FINAL SINGLE POINT ENERGY     -1274.343239471223

DIPOLE MOMENT
-------------
                                X             Y             Z
Electronic contribution:     10.83288       9.46303      11.67360
Nuclear contribution   :    -12.49003     -10.64475     -12.48101
                        -----------------------------------------
Total Dipole Moment    :     -1.65715      -1.18172      -0.80741
                        -----------------------------------------
Magnitude (a.u.)       :      2.18964
Magnitude (Debye)      :      5.56562

Rotational constants in cm-1:     0.010525     0.008831     0.005786
Rotational constants in MHz :   315.541953   264.756745   173.464408

                             ****ORCA TERMINATED NORMALLY****
TOTAL RUN TIME: 0 days 1 hours 26 minutes 34 seconds 692 msec
