                         Program Version 4.2.0 -  RELEASE  -
|  1> ! ri-mp2 cc-pvtz cc-pvtz/c TightSCF  NoKeepInts
|  2>
|  3> %scf
|  4>   MaxCore 4096
|  5> end
|  6> *xyz  0  1
|  7>     C       14.9965608   15.1285854   17.5782780
|  8>     C       15.5768385   15.4518331   16.1916817
|  9>     O       16.9367421   14.9800297   16.1144076
| 10>     C       18.0832665   15.6600924   16.4506819
| 11>     O       19.1433783   15.0638667   16.4067727
| 12>     C       17.9343987   16.8388377   17.3575005
| 13>     C       17.4711249   18.0347676   16.9231684
| 14>     C       17.0580588   18.4006846   15.5126214
| 15>     N       17.4753826   19.1376959   17.7796196
| 16>     C       18.0718189   19.1644185   19.0127357
| 17>     S       18.1085375   20.5394877   19.9302366
| 18>     N       18.6468393   17.9948298   19.4436922
| 19>     C       18.5549956   16.6924360   18.7529800
| 20>     C       17.8363340   15.6466330   19.6056929
| 21>     C       18.2038353   14.2915317   19.5050864
| 22>     C       17.5548284   13.3105442   20.2726433
| 23>     C       16.5285976   13.6849043   21.1556184
| 24>     C       16.1605793   15.0321707   21.2648685
| 25>     O       15.1642162   15.3964023   22.1104962
| 26>     C       16.8083665   16.0074130   20.4995999
| 27>     H       15.3055721   15.8817174   18.3089163
| 28>     H       15.3288662   14.1418451   17.9261945
| 29>     H       13.9004043   15.1297580   17.5457008
| 30>     H       14.9904147   14.8933400   15.4504644
| 31>     H       15.4626945   16.5112808   15.9574556
| 32>     H       17.2036560   17.5758162   14.8044438
| 33>     H       17.6611756   19.2392676   15.1407979
| 34>     H       16.0046092   18.7040161   15.4714337
| 35>     H       17.0846925   20.0139079   17.4703933
| 36>     H       19.0748279   18.0413634   20.3598755
| 37>     H       19.5850339   16.3329853   18.6098434
| 38>     H       18.9938658   13.9943042   18.8184779
| 39>     H       17.8478385   12.2662768   20.1779162
| 40>     H       16.0233223   12.9298918   21.7487561
| 41>     H       14.8711301   14.5980551   22.5751690
| 42>     H       16.4941965   17.0410103   20.5997794
| 43> *
| 44>
| 45>                          ****END OF INPUT****

CARTESIAN COORDINATES (ANGSTROEM)
---------------------------------
  C     14.996561   15.128585   17.578278
  C     15.576838   15.451833   16.191682
  O     16.936742   14.980030   16.114408
  C     18.083267   15.660092   16.450682
  O     19.143378   15.063867   16.406773
  C     17.934399   16.838838   17.357500
  C     17.471125   18.034768   16.923168
  C     17.058059   18.400685   15.512621
  N     17.475383   19.137696   17.779620
  C     18.071819   19.164419   19.012736
  S     18.108538   20.539488   19.930237
  N     18.646839   17.994830   19.443692
  C     18.554996   16.692436   18.752980
  C     17.836334   15.646633   19.605693
  C     18.203835   14.291532   19.505086
  C     17.554828   13.310544   20.272643
  C     16.528598   13.684904   21.155618
  C     16.160579   15.032171   21.264868
  O     15.164216   15.396402   22.110496
  C     16.808367   16.007413   20.499600
  H     15.305572   15.881717   18.308916
  H     15.328866   14.141845   17.926195
  H     13.900404   15.129758   17.545701
  H     14.990415   14.893340   15.450464
  H     15.462694   16.511281   15.957456
  H     17.203656   17.575816   14.804444
  H     17.661176   19.239268   15.140798
  H     16.004609   18.704016   15.471434
  H     17.084692   20.013908   17.470393
  H     19.074828   18.041363   20.359876
  H     19.585034   16.332985   18.609843
  H     18.993866   13.994304   18.818478
  H     17.847839   12.266277   20.177916
  H     16.023322   12.929892   21.748756
  H     14.871130   14.598055   22.575169
  H     16.494197   17.041010   20.599779

 Total Charge           Charge          ....    0
 Multiplicity           Mult            ....    1
 Number of Electrons    NEL             ....  154
 Basis Dimension        Dim             ....  828

ORBITAL ENERGIES
----------------

  NO   OCC          E(Eh)            E(eV)
   0   2.0000     -91.890272     -2500.4614
   1   2.0000     -20.602109      -560.6119
   2   2.0000     -20.597475      -560.4858
   3   2.0000     -20.551219      -559.2271
   4   2.0000     -15.627080      -425.2345
   5   2.0000     -15.611619      -424.8137
   6   2.0000     -11.400761      -310.2305
   7   2.0000     -11.386879      -309.8527
   8   2.0000     -11.330983      -308.3317
   9   2.0000     -11.315935      -307.9222
  10   2.0000     -11.314211      -307.8753
  11   2.0000     -11.305846      -307.6477
  12   2.0000     -11.272775      -306.7478
  13   2.0000     -11.268799      -306.6396
  14   2.0000     -11.262728      -306.4744
  15   2.0000     -11.254603      -306.2533
  16   2.0000     -11.243542      -305.9523
  17   2.0000     -11.239354      -305.8384
  18   2.0000     -11.235894      -305.7442
  19   2.0000     -11.225444      -305.4599
  20   2.0000      -8.895382      -242.0557
  21   2.0000      -6.576974      -178.9686
  22   2.0000      -6.574943      -178.9133
  23   2.0000      -6.574370      -178.8977
  24   2.0000      -1.449000       -39.4293
  25   2.0000      -1.417278       -38.5661
  26   2.0000      -1.360077       -37.0096
  27   2.0000      -1.341049       -36.4918
  28   2.0000      -1.240515       -33.7561
  29   2.0000      -1.158856       -31.5341
  30   2.0000      -1.125649       -30.6305
  31   2.0000      -1.048137       -28.5212
  32   2.0000      -1.038516       -28.2595
  33   2.0000      -1.017563       -27.6893
  34   2.0000      -1.005678       -27.3659
  35   2.0000      -0.990063       -26.9410
  36   2.0000      -0.927984       -25.2517
  37   2.0000      -0.891761       -24.2660
  38   2.0000      -0.855432       -23.2775
  39   2.0000      -0.840993       -22.8846
  40   2.0000      -0.834142       -22.6982
  41   2.0000      -0.832200       -22.6453
  42   2.0000      -0.753170       -20.4948
  43   2.0000      -0.740635       -20.1537
  44   2.0000      -0.730396       -19.8751
  45   2.0000      -0.695412       -18.9231
  46   2.0000      -0.688264       -18.7286
  47   2.0000      -0.681151       -18.5351
  48   2.0000      -0.675646       -18.3853
  49   2.0000      -0.663890       -18.0654
  50   2.0000      -0.652972       -17.7683
  51   2.0000      -0.640199       -17.4207
  52   2.0000      -0.637701       -17.3527
  53   2.0000      -0.622184       -16.9305
  54   2.0000      -0.611915       -16.6510
  55   2.0000      -0.606059       -16.4917
  56   2.0000      -0.601432       -16.3658
  57   2.0000      -0.590462       -16.0673
  58   2.0000      -0.578161       -15.7326
  59   2.0000      -0.570315       -15.5190
  60   2.0000      -0.565811       -15.3965
  61   2.0000      -0.555950       -15.1282
  62   2.0000      -0.536602       -14.6017
  63   2.0000      -0.535308       -14.5665
  64   2.0000      -0.517252       -14.0751
  65   2.0000      -0.512324       -13.9410
  66   2.0000      -0.504845       -13.7375
  67   2.0000      -0.501482       -13.6460
  68   2.0000      -0.483630       -13.1602
  69   2.0000      -0.467617       -12.7245
  70   2.0000      -0.454260       -12.3610
  71   2.0000      -0.449693       -12.2368
  72   2.0000      -0.358673        -9.7600
  73   2.0000      -0.348270        -9.4769
  74   2.0000      -0.329965        -8.9788
  75   2.0000      -0.322799        -8.7838
  76   2.0000      -0.319054        -8.6819
  77   0.0000       0.087478         2.3804
  78   0.0000       0.106598         2.9007
  79   0.0000       0.110334         3.0023
  80   0.0000       0.128505         3.4968
  81   0.0000       0.131206         3.5703

MULLIKEN ATOMIC CHARGES
-----------------------
   0 C :   -0.303853
   1 C :    0.010741
   2 O :   -0.313210
   3 C :    0.407078
   4 O :   -0.382168
   5 C :   -0.205121
   6 C :    0.140456
   7 C :   -0.325219
   8 N :   -0.139050
   9 C :    0.207668
  10 S :   -0.441785
  11 N :   -0.234136
  12 C :    0.100711
  13 C :    0.021876
  14 C :   -0.212471
  15 C :   -0.141189
  16 C :   -0.274707
  17 C :    0.327255
  18 O :   -0.357481
  19 C :   -0.280304
  20 H :    0.103965
  21 H :    0.120521
  22 H :    0.107912
  23 H :    0.124754
  24 H :    0.088210
  25 H :    0.121873
  26 H :    0.143668
  27 H :    0.120140
  28 H :    0.195169
  29 H :    0.204536
  30 H :    0.168393
  31 H :    0.175595
  32 H :    0.165112
  33 H :    0.131911
  34 H :    0.240996
  35 H :    0.182154
Sum of atomic charges:    0.0000000

LOEWDIN ATOMIC CHARGES
----------------------
   0 C :    0.106704
   1 C :   -0.024018
   2 O :    0.310411
   3 C :   -0.416665
   4 O :    0.124612
   5 C :   -0.076586
   6 C :   -0.105656
   7 C :    0.120466
   8 N :    0.401449
   9 C :   -0.457296
  10 S :   -0.038220
  11 N :    0.398317
  12 C :   -0.041161
  13 C :   -0.040826
  14 C :    0.021379
  15 C :    0.044104
  16 C :   -0.001547
  17 C :   -0.192227
  18 O :    0.395680
  19 C :    0.026691
  20 H :   -0.034040
  21 H :   -0.019293
  22 H :   -0.026707
  23 H :   -0.022111
  24 H :   -0.039349
  25 H :   -0.009564
  26 H :   -0.007921
  27 H :   -0.018052
  28 H :   -0.057955
  29 H :   -0.063459
  30 H :   -0.001633
  31 H :   -0.022186
  32 H :   -0.018624
  33 H :   -0.035135
  34 H :   -0.153468
  35 H :   -0.026113

  Mayer bond orders larger than 0.100000
B(  0-C ,  1-C ) :   0.9605 B(  0-C , 20-H ) :   0.9723 B(  0-C , 21-H ) :   0.9700
B(  0-C , 22-H ) :   0.9780 B(  1-C ,  2-O ) :   0.9089 B(  1-C , 23-H ) :   0.9867
B(  1-C , 24-H ) :   0.9716 B(  2-O ,  3-C ) :   1.1626 B(  3-C ,  4-O ) :   2.0797
B(  3-C ,  5-C ) :   0.9223 B(  5-C ,  6-C ) :   1.7004 B(  5-C , 12-C ) :   0.9442
B(  6-C ,  7-C ) :   0.9405 B(  6-C ,  8-N ) :   1.1079 B(  7-C , 25-H ) :   0.9823
B(  7-C , 26-H ) :   0.9672 B(  7-C , 27-H ) :   0.9681 B(  8-N ,  9-C ) :   1.1998
B(  8-N , 28-H ) :   0.9531 B(  9-C , 10-S ) :   1.6060 B(  9-C , 11-N ) :   1.2883
B( 11-N , 12-C ) :   0.9818 B( 11-N , 29-H ) :   0.9463 B( 12-C , 13-C ) :   0.9570
B( 12-C , 30-H ) :   0.9933 B( 13-C , 14-C ) :   1.3862 B( 13-C , 19-C ) :   1.3359
B( 14-C , 15-C ) :   1.4053 B( 14-C , 31-H ) :   0.9584 B( 15-C , 16-C ) :   1.3554
B( 15-C , 32-H ) :   0.9694 B( 16-C , 17-C ) :   1.3325 B( 16-C , 33-H ) :   0.9849
B( 17-C , 18-O ) :   1.1086 B( 17-C , 19-C ) :   1.3620 B( 18-O , 34-H ) :   0.9796
B( 19-C , 35-H ) :   0.9575

MP2 TOTAL ENERGY:    -1274.327122402 Eh
FINAL SINGLE POINT ENERGY     -1274.327122401529

DIPOLE MOMENT
-------------
                                X             Y             Z
Electronic contribution:      9.27654       6.68875       6.23537
Nuclear contribution   :    -10.79571      -7.66563      -6.98911
                        -----------------------------------------
Total Dipole Moment    :     -1.51916      -0.97688      -0.75374
                        -----------------------------------------
Magnitude (a.u.)       :      1.95711
Magnitude (Debye)      :      4.97458

Rotational constants in cm-1:     0.011971     0.009485     0.006701
Rotational constants in MHz :   358.871873   284.343559   200.900154

                             ****ORCA TERMINATED NORMALLY****
TOTAL RUN TIME: 0 days 1 hours 47 minutes 36 seconds 90 msec
