                         Program Version 4.2.0 -  RELEASE  -
|  1> ! ri-mp2 cc-pvtz cc-pvtz/c TightSCF  NoKeepInts
|  2>
|  3> %scf
|  4>   MaxCore 4096
|  5> end
|  6> *xyz  0  1
|  7>     C       14.8264752   14.5639536   17.3831716
|  8>     C       15.5898515   15.5334298   16.4663542
|  9>     O       16.9262292   15.0131578   16.3281049
| 10>     C       18.0947478   15.7218410   16.4621536
| 11>     O       19.1459910   15.1201782   16.3450266
| 12>     C       18.0319881   16.9045584   17.3702053
| 13>     C       17.5478306   18.0991718   16.9604498
| 14>     C       16.9919633   18.4313934   15.5918762
| 15>     N       17.5967551   19.2011607   17.8165492
| 16>     C       18.2273759   19.2120527   19.0338403
| 17>     S       18.3053934   20.5810346   19.9578540
| 18>     N       18.7894522   18.0290499   19.4487170
| 19>     C       18.6670104   16.7335903   18.7491538
| 20>     C       17.8948621   15.7149668   19.5825987
| 21>     C       18.3040472   14.3689752   19.5998802
| 22>     C       17.6018725   13.4156709   20.3558303
| 23>     C       16.4784436   13.8100066   21.1020165
| 24>     C       16.0619040   15.1478253   21.0815893
| 25>     O       14.9678901   15.5286128   21.7876980
| 26>     C       16.7601831   16.0944108   20.3248021
| 27>     H       15.3255461   14.4744981   18.3547562
| 28>     H       14.7776967   13.5650568   16.9320154
| 29>     H       13.8019230   14.9157528   17.5537675
| 30>     H       15.1023583   15.5965740   15.4848963
| 31>     H       15.5612786   16.5207438   16.9362682
| 32>     H       17.1414377   17.6188369   14.8704406
| 33>     H       17.4894018   19.3165961   15.1747833
| 34>     H       15.9167163   18.6425468   15.6425991
| 35>     H       17.2062085   20.0830980   17.5235970
| 36>     H       19.2331760   18.0627883   20.3579115
| 37>     H       19.6839663   16.3418906   18.5980253
| 38>     H       19.1650063   14.0582295   19.0113435
| 39>     H       17.9276483   12.3768448   20.3562936
| 40>     H       15.9326237   13.0760991   21.6856689
| 41>     H       14.6574269   14.7547768   22.2818020
| 42>     H       16.4143193   17.1226271   20.3219597
| 43> *
| 44>
| 45>                          ****END OF INPUT****

CARTESIAN COORDINATES (ANGSTROEM)
---------------------------------
  C     14.826475   14.563954   17.383172
  C     15.589851   15.533430   16.466354
  O     16.926229   15.013158   16.328105
  C     18.094748   15.721841   16.462154
  O     19.145991   15.120178   16.345027
  C     18.031988   16.904558   17.370205
  C     17.547831   18.099172   16.960450
  C     16.991963   18.431393   15.591876
  N     17.596755   19.201161   17.816549
  C     18.227376   19.212053   19.033840
  S     18.305393   20.581035   19.957854
  N     18.789452   18.029050   19.448717
  C     18.667010   16.733590   18.749154
  C     17.894862   15.714967   19.582599
  C     18.304047   14.368975   19.599880
  C     17.601872   13.415671   20.355830
  C     16.478444   13.810007   21.102017
  C     16.061904   15.147825   21.081589
  O     14.967890   15.528613   21.787698
  C     16.760183   16.094411   20.324802
  H     15.325546   14.474498   18.354756
  H     14.777697   13.565057   16.932015
  H     13.801923   14.915753   17.553767
  H     15.102358   15.596574   15.484896
  H     15.561279   16.520744   16.936268
  H     17.141438   17.618837   14.870441
  H     17.489402   19.316596   15.174783
  H     15.916716   18.642547   15.642599
  H     17.206208   20.083098   17.523597
  H     19.233176   18.062788   20.357912
  H     19.683966   16.341891   18.598025
  H     19.165006   14.058229   19.011343
  H     17.927648   12.376845   20.356294
  H     15.932624   13.076099   21.685669
  H     14.657427   14.754777   22.281802
  H     16.414319   17.122627   20.321960

 Total Charge           Charge          ....    0
 Multiplicity           Mult            ....    1
 Number of Electrons    NEL             ....  154
 Basis Dimension        Dim             ....  828

ORBITAL ENERGIES
----------------

  NO   OCC          E(Eh)            E(eV)
   0   2.0000     -91.889617     -2500.4436
   1   2.0000     -20.603030      -560.6370
   2   2.0000     -20.599140      -560.5311
   3   2.0000     -20.551416      -559.2325
   4   2.0000     -15.626088      -425.2075
   5   2.0000     -15.611563      -424.8122
   6   2.0000     -11.398361      -310.1652
   7   2.0000     -11.386465      -309.8415
   8   2.0000     -11.327357      -308.2330
   9   2.0000     -11.316073      -307.9260
  10   2.0000     -11.315736      -307.9168
  11   2.0000     -11.304082      -307.5997
  12   2.0000     -11.271396      -306.7103
  13   2.0000     -11.265925      -306.5614
  14   2.0000     -11.263612      -306.4985
  15   2.0000     -11.256437      -306.3032
  16   2.0000     -11.245319      -306.0007
  17   2.0000     -11.241560      -305.8984
  18   2.0000     -11.238608      -305.8181
  19   2.0000     -11.226963      -305.5012
  20   2.0000      -8.894735      -242.0380
  21   2.0000      -6.576326      -178.9509
  22   2.0000      -6.574296      -178.8957
  23   2.0000      -6.573724      -178.8801
  24   2.0000      -1.450295       -39.4645
  25   2.0000      -1.418949       -38.6116
  26   2.0000      -1.359990       -37.0072
  27   2.0000      -1.339820       -36.4583
  28   2.0000      -1.239690       -33.7337
  29   2.0000      -1.160792       -31.5868
  30   2.0000      -1.125902       -30.6374
  31   2.0000      -1.049092       -28.5472
  32   2.0000      -1.039018       -28.2731
  33   2.0000      -1.018536       -27.7158
  34   2.0000      -1.005376       -27.3577
  35   2.0000      -0.989374       -26.9222
  36   2.0000      -0.927991       -25.2519
  37   2.0000      -0.883743       -24.0479
  38   2.0000      -0.854717       -23.2580
  39   2.0000      -0.841498       -22.8983
  40   2.0000      -0.836381       -22.7591
  41   2.0000      -0.835259       -22.7285
  42   2.0000      -0.757378       -20.6093
  43   2.0000      -0.739633       -20.1264
  44   2.0000      -0.731125       -19.8949
  45   2.0000      -0.697367       -18.9763
  46   2.0000      -0.689431       -18.7604
  47   2.0000      -0.683150       -18.5895
  48   2.0000      -0.676545       -18.4097
  49   2.0000      -0.662320       -18.0227
  50   2.0000      -0.654582       -17.8121
  51   2.0000      -0.643193       -17.5022
  52   2.0000      -0.639240       -17.3946
  53   2.0000      -0.614151       -16.7119
  54   2.0000      -0.610391       -16.6096
  55   2.0000      -0.606965       -16.5164
  56   2.0000      -0.602239       -16.3877
  57   2.0000      -0.587372       -15.9832
  58   2.0000      -0.577834       -15.7236
  59   2.0000      -0.568091       -15.4585
  60   2.0000      -0.560854       -15.2616
  61   2.0000      -0.557346       -15.1661
  62   2.0000      -0.542466       -14.7613
  63   2.0000      -0.532393       -14.4871
  64   2.0000      -0.519235       -14.1291
  65   2.0000      -0.513624       -13.9764
  66   2.0000      -0.503031       -13.6882
  67   2.0000      -0.501657       -13.6508
  68   2.0000      -0.487008       -13.2522
  69   2.0000      -0.469907       -12.7868
  70   2.0000      -0.453483       -12.3399
  71   2.0000      -0.450434       -12.2569
  72   2.0000      -0.357218        -9.7204
  73   2.0000      -0.351587        -9.5672
  74   2.0000      -0.329331        -8.9616
  75   2.0000      -0.324061        -8.8182
  76   2.0000      -0.318058        -8.6548
  77   0.0000       0.088639         2.4120
  78   0.0000       0.104782         2.8513
  79   0.0000       0.108405         2.9498
  80   0.0000       0.128587         3.4990
  81   0.0000       0.130792         3.5590

MULLIKEN ATOMIC CHARGES
-----------------------
   0 C :   -0.263423
   1 C :    0.014635
   2 O :   -0.308239
   3 C :    0.388971
   4 O :   -0.378641
   5 C :   -0.155924
   6 C :    0.117577
   7 C :   -0.321044
   8 N :   -0.136348
   9 C :    0.204854
  10 S :   -0.441695
  11 N :   -0.219126
  12 C :    0.060528
  13 C :    0.018332
  14 C :   -0.194721
  15 C :   -0.133257
  16 C :   -0.272660
  17 C :    0.302076
  18 O :   -0.360539
  19 C :   -0.250708
  20 H :    0.113618
  21 H :    0.103899
  22 H :    0.088491
  23 H :    0.109918
  24 H :    0.088060
  25 H :    0.120323
  26 H :    0.137994
  27 H :    0.122395
  28 H :    0.195880
  29 H :    0.200023
  30 H :    0.167749
  31 H :    0.168057
  32 H :    0.163287
  33 H :    0.132142
  34 H :    0.241352
  35 H :    0.176162
Sum of atomic charges:    0.0000000

LOEWDIN ATOMIC CHARGES
----------------------
   0 C :    0.110966
   1 C :   -0.023541
   2 O :    0.317567
   3 C :   -0.420005
   4 O :    0.126986
   5 C :   -0.079923
   6 C :   -0.109891
   7 C :    0.124144
   8 N :    0.400561
   9 C :   -0.456084
  10 S :   -0.038661
  11 N :    0.397813
  12 C :   -0.042773
  13 C :   -0.042085
  14 C :    0.023050
  15 C :    0.045510
  16 C :   -0.001520
  17 C :   -0.194096
  18 O :    0.395689
  19 C :    0.025799
  20 H :   -0.022960
  21 H :   -0.025947
  22 H :   -0.026567
  23 H :   -0.032370
  24 H :   -0.039998
  25 H :   -0.009334
  26 H :   -0.009478
  27 H :   -0.016520
  28 H :   -0.058431
  29 H :   -0.063614
  30 H :   -0.001749
  31 H :   -0.021663
  32 H :   -0.018407
  33 H :   -0.034938
  34 H :   -0.153083
  35 H :   -0.024447

  Mayer bond orders larger than 0.100000
B(  0-C ,  1-C ) :   0.9781 B(  0-C , 20-H ) :   0.9701 B(  0-C , 21-H ) :   0.9821
B(  0-C , 22-H ) :   0.9754 B(  1-C ,  2-O ) :   0.9210 B(  1-C , 23-H ) :   0.9790
B(  1-C , 24-H ) :   0.9615 B(  2-O ,  3-C ) :   1.1537 B(  3-C ,  4-O ) :   2.0898
B(  3-C ,  5-C ) :   0.9229 B(  5-C ,  6-C ) :   1.6969 B(  5-C , 12-C ) :   0.9610
B(  6-C ,  7-C ) :   0.9482 B(  6-C ,  8-N ) :   1.1073 B(  7-C , 25-H ) :   0.9809
B(  7-C , 26-H ) :   0.9710 B(  7-C , 27-H ) :   0.9658 B(  8-N ,  9-C ) :   1.1973
B(  8-N , 28-H ) :   0.9527 B(  9-C , 10-S ) :   1.6094 B(  9-C , 11-N ) :   1.2865
B( 11-N , 12-C ) :   0.9917 B( 11-N , 29-H ) :   0.9482 B( 12-C , 13-C ) :   0.9475
B( 12-C , 30-H ) :   0.9962 B( 13-C , 14-C ) :   1.3877 B( 13-C , 19-C ) :   1.3526
B( 14-C , 15-C ) :   1.3980 B( 14-C , 31-H ) :   0.9615 B( 15-C , 16-C ) :   1.3582
B( 15-C , 32-H ) :   0.9707 B( 16-C , 17-C ) :   1.3329 B( 16-C , 33-H ) :   0.9854
B( 17-C , 18-O ) :   1.1087 B( 17-C , 19-C ) :   1.3690 B( 18-O , 34-H ) :   0.9793
B( 19-C , 35-H ) :   0.9558

MP2 TOTAL ENERGY:    -1274.328165970 Eh
FINAL SINGLE POINT ENERGY     -1274.328165969605

DIPOLE MOMENT
-------------
                                X             Y             Z
Electronic contribution:     10.16397       7.90881       6.19466
Nuclear contribution   :    -11.73658      -8.91633      -6.80869
                        -----------------------------------------
Total Dipole Moment    :     -1.57261      -1.00752      -0.61402
                        -----------------------------------------
Magnitude (a.u.)       :      1.96602
Magnitude (Debye)      :      4.99722

Rotational constants in cm-1:     0.012260     0.009228     0.006813
Rotational constants in MHz :   367.556324   276.661710   204.259448

                             ****ORCA TERMINATED NORMALLY****
TOTAL RUN TIME: 0 days 1 hours 52 minutes 9 seconds 131 msec
