                         Program Version 4.2.0 -  RELEASE  -
|  1> ! ri-mp2 cc-pvtz cc-pvtz/c TightSCF  NoKeepInts
|  2>
|  3> %scf
|  4>   MaxCore 4096
|  5> end
|  6> *xyz  0  1
|  7>     C       15.3167603   14.1539965   14.6186508
|  8>     C       15.1323397   14.7591607   16.0213243
|  9>     O       16.0865032   15.8259972   16.1707504
| 10>     C       17.2335482   15.6085036   16.8789414
| 11>     O       17.6645519   14.4857269   17.0863726
| 12>     C       17.7277878   16.8078289   17.6363404
| 13>     C       17.4120509   18.0971528   17.3448990
| 14>     C       16.5366575   18.6127653   16.2209033
| 15>     N       17.9835618   19.1363826   18.0867518
| 16>     C       18.9794131   18.9817286   19.0146224
| 17>     S       19.6924211   20.2787517   19.7528404
| 18>     N       19.3546721   17.6933467   19.2987094
| 19>     C       18.6629129   16.4866691   18.8079774
| 20>     C       17.9042906   15.8069241   19.9450983
| 21>     C       18.1314535   14.4503334   20.2420742
| 22>     C       17.4342888   13.8184937   21.2854640
| 23>     C       16.5006054   14.5487599   22.0401408
| 24>     C       16.2683670   15.8990450   21.7454185
| 25>     O       15.3628139   16.6053377   22.4682626
| 26>     C       16.9633796   16.5250041   20.7058843
| 27>     H       15.1942222   14.9214008   13.8444366
| 28>     H       14.5780371   13.3631996   14.4406909
| 29>     H       16.3176914   13.7152037   14.5180071
| 30>     H       14.1167989   15.1677733   16.1001632
| 31>     H       15.2499675   13.9911054   16.7985950
| 32>     H       16.8182313   18.1535706   15.2650167
| 33>     H       16.6129984   19.6988688   16.0890177
| 34>     H       15.4824828   18.3762227   16.4118193
| 35>     H       17.7217971   20.0896016   17.8922823
| 36>     H       20.0690860   17.6045735   20.0098064
| 37>     H       19.4309266   15.7898101   18.4422104
| 38>     H       18.8404857   13.8786500   19.6481441
| 39>     H       17.6152450   12.7669429   21.5006680
| 40>     H       15.9587640   14.0642589   22.8454813
| 41>     H       15.0211182   16.0171253   23.1582004
| 42>     H       16.7707688   17.5717844   20.4980341
| 43> *
| 44>
| 45>                          ****END OF INPUT****

CARTESIAN COORDINATES (ANGSTROEM)
---------------------------------
  C     15.316760   14.153996   14.618651
  C     15.132340   14.759161   16.021324
  O     16.086503   15.825997   16.170750
  C     17.233548   15.608504   16.878941
  O     17.664552   14.485727   17.086373
  C     17.727788   16.807829   17.636340
  C     17.412051   18.097153   17.344899
  C     16.536658   18.612765   16.220903
  N     17.983562   19.136383   18.086752
  C     18.979413   18.981729   19.014622
  S     19.692421   20.278752   19.752840
  N     19.354672   17.693347   19.298709
  C     18.662913   16.486669   18.807977
  C     17.904291   15.806924   19.945098
  C     18.131453   14.450333   20.242074
  C     17.434289   13.818494   21.285464
  C     16.500605   14.548760   22.040141
  C     16.268367   15.899045   21.745418
  O     15.362814   16.605338   22.468263
  C     16.963380   16.525004   20.705884
  H     15.194222   14.921401   13.844437
  H     14.578037   13.363200   14.440691
  H     16.317691   13.715204   14.518007
  H     14.116799   15.167773   16.100163
  H     15.249968   13.991105   16.798595
  H     16.818231   18.153571   15.265017
  H     16.612998   19.698869   16.089018
  H     15.482483   18.376223   16.411819
  H     17.721797   20.089602   17.892282
  H     20.069086   17.604574   20.009806
  H     19.430927   15.789810   18.442210
  H     18.840486   13.878650   19.648144
  H     17.615245   12.766943   21.500668
  H     15.958764   14.064259   22.845481
  H     15.021118   16.017125   23.158200
  H     16.770769   17.571784   20.498034

 Total Charge           Charge          ....    0
 Multiplicity           Mult            ....    1
 Number of Electrons    NEL             ....  154
 Basis Dimension        Dim             ....  828

ORBITAL ENERGIES
----------------

  NO   OCC          E(Eh)            E(eV)
   0   2.0000     -91.888096     -2500.4022
   1   2.0000     -20.600501      -560.5681
   2   2.0000     -20.591873      -560.3334
   3   2.0000     -20.547709      -559.1316
   4   2.0000     -15.628373      -425.2697
   5   2.0000     -15.606828      -424.6834
   6   2.0000     -11.396641      -310.1184
   7   2.0000     -11.383053      -309.7486
   8   2.0000     -11.335934      -308.4665
   9   2.0000     -11.307750      -307.6995
  10   2.0000     -11.305920      -307.6497
  11   2.0000     -11.299799      -307.4832
  12   2.0000     -11.260562      -306.4155
  13   2.0000     -11.259025      -306.3736
  14   2.0000     -11.253709      -306.2290
  15   2.0000     -11.247936      -306.0719
  16   2.0000     -11.237555      -305.7894
  17   2.0000     -11.233650      -305.6832
  18   2.0000     -11.230700      -305.6029
  19   2.0000     -11.226810      -305.4970
  20   2.0000      -8.893161      -241.9952
  21   2.0000      -6.574738      -178.9077
  22   2.0000      -6.572731      -178.8531
  23   2.0000      -6.572146      -178.8372
  24   2.0000      -1.454227       -39.5715
  25   2.0000      -1.411608       -38.4118
  26   2.0000      -1.357635       -36.9431
  27   2.0000      -1.339333       -36.4451
  28   2.0000      -1.237005       -33.6606
  29   2.0000      -1.152364       -31.3574
  30   2.0000      -1.119714       -30.4690
  31   2.0000      -1.042772       -28.3753
  32   2.0000      -1.035043       -28.1649
  33   2.0000      -1.009709       -27.4756
  34   2.0000      -0.997410       -27.1409
  35   2.0000      -0.982836       -26.7443
  36   2.0000      -0.921325       -25.0705
  37   2.0000      -0.889767       -24.2118
  38   2.0000      -0.847625       -23.0650
  39   2.0000      -0.835616       -22.7383
  40   2.0000      -0.828127       -22.5345
  41   2.0000      -0.819230       -22.2924
  42   2.0000      -0.757226       -20.6052
  43   2.0000      -0.735357       -20.0101
  44   2.0000      -0.725192       -19.7335
  45   2.0000      -0.690793       -18.7974
  46   2.0000      -0.685354       -18.6494
  47   2.0000      -0.680219       -18.5097
  48   2.0000      -0.671821       -18.2812
  49   2.0000      -0.657558       -17.8931
  50   2.0000      -0.646498       -17.5921
  51   2.0000      -0.641496       -17.4560
  52   2.0000      -0.628743       -17.1090
  53   2.0000      -0.614357       -16.7175
  54   2.0000      -0.600380       -16.3372
  55   2.0000      -0.599974       -16.3261
  56   2.0000      -0.595121       -16.1941
  57   2.0000      -0.584318       -15.9001
  58   2.0000      -0.573331       -15.6011
  59   2.0000      -0.565222       -15.3805
  60   2.0000      -0.561014       -15.2660
  61   2.0000      -0.546163       -14.8619
  62   2.0000      -0.533923       -14.5288
  63   2.0000      -0.526300       -14.3213
  64   2.0000      -0.517360       -14.0781
  65   2.0000      -0.510091       -13.8803
  66   2.0000      -0.500943       -13.6314
  67   2.0000      -0.495595       -13.4858
  68   2.0000      -0.480434       -13.0733
  69   2.0000      -0.462403       -12.5826
  70   2.0000      -0.457305       -12.4439
  71   2.0000      -0.455386       -12.3917
  72   2.0000      -0.354128        -9.6363
  73   2.0000      -0.344203        -9.3662
  74   2.0000      -0.327236        -8.9045
  75   2.0000      -0.315716        -8.5911
  76   2.0000      -0.314037        -8.5454
  77   0.0000       0.075423         2.0524
  78   0.0000       0.112509         3.0615
  79   0.0000       0.121465         3.3052
  80   0.0000       0.135713         3.6929
  81   0.0000       0.140334         3.8187

MULLIKEN ATOMIC CHARGES
-----------------------
   0 C :   -0.277790
   1 C :    0.036432
   2 O :   -0.350521
   3 C :    0.438567
   4 O :   -0.427631
   5 C :   -0.166278
   6 C :    0.144461
   7 C :   -0.284161
   8 N :   -0.122675
   9 C :    0.201430
  10 S :   -0.439368
  11 N :   -0.197331
  12 C :    0.037572
  13 C :    0.055485
  14 C :   -0.162426
  15 C :   -0.134193
  16 C :   -0.279128
  17 C :    0.311431
  18 O :   -0.358982
  19 C :   -0.271824
  20 H :    0.090658
  21 H :    0.092662
  22 H :    0.108756
  23 H :    0.101173
  24 H :    0.107680
  25 H :    0.126160
  26 H :    0.102118
  27 H :    0.127462
  28 H :    0.196861
  29 H :    0.193685
  30 H :    0.153655
  31 H :    0.153845
  32 H :    0.159272
  33 H :    0.128166
  34 H :    0.240059
  35 H :    0.164716
Sum of atomic charges:    0.0000000

LOEWDIN ATOMIC CHARGES
----------------------
   0 C :    0.104186
   1 C :   -0.014832
   2 O :    0.304979
   3 C :   -0.414239
   4 O :    0.105746
   5 C :   -0.091126
   6 C :   -0.066759
   7 C :    0.125129
   8 N :    0.404741
   9 C :   -0.458775
  10 S :   -0.036057
  11 N :    0.397734
  12 C :   -0.046195
  13 C :   -0.039016
  14 C :    0.021703
  15 C :    0.040615
  16 C :   -0.002356
  17 C :   -0.192610
  18 O :    0.393053
  19 C :    0.028570
  20 H :   -0.029785
  21 H :   -0.027343
  22 H :   -0.023714
  23 H :   -0.028278
  24 H :   -0.025945
  25 H :   -0.008591
  26 H :   -0.020809
  27 H :   -0.009525
  28 H :   -0.059072
  29 H :   -0.063717
  30 H :   -0.004967
  31 H :   -0.025298
  32 H :   -0.021223
  33 H :   -0.036379
  34 H :   -0.154873
  35 H :   -0.024970

  Mayer bond orders larger than 0.100000
B(  0-C ,  1-C ) :   0.9694 B(  0-C , 20-H ) :   0.9781 B(  0-C , 21-H ) :   0.9762
B(  0-C , 22-H ) :   0.9765 B(  1-C ,  2-O ) :   0.8923 B(  1-C , 23-H ) :   0.9837
B(  1-C , 24-H ) :   0.9734 B(  2-O ,  3-C ) :   1.1382 B(  3-C ,  4-O ) :   1.9735
B(  3-C ,  5-C ) :   1.0568 B(  5-C ,  6-C ) :   1.6515 B(  5-C , 12-C ) :   0.9648
B(  6-C ,  7-C ) :   0.9543 B(  6-C ,  8-N ) :   1.1445 B(  7-C , 25-H ) :   0.9668
B(  7-C , 26-H ) :   0.9909 B(  7-C , 27-H ) :   0.9634 B(  8-N ,  9-C ) :   1.1796
B(  8-N , 28-H ) :   0.9489 B(  9-C , 10-S ) :   1.6107 B(  9-C , 11-N ) :   1.3035
B( 11-N , 12-C ) :   0.9921 B( 11-N , 29-H ) :   0.9519 B( 12-C , 13-C ) :   0.9472
B( 12-C , 30-H ) :   0.9996 B( 13-C , 14-C ) :   1.3755 B( 13-C , 19-C ) :   1.3698
B( 14-C , 15-C ) :   1.3944 B( 14-C , 31-H ) :   0.9648 B( 15-C , 16-C ) :   1.3626
B( 15-C , 32-H ) :   0.9714 B( 16-C , 17-C ) :   1.3314 B( 16-C , 33-H ) :   0.9860
B( 17-C , 18-O ) :   1.1081 B( 17-C , 19-C ) :   1.3787 B( 18-O , 34-H ) :   0.9806
B( 19-C , 35-H ) :   0.9585

MP2 TOTAL ENERGY:    -1274.343477369 Eh
FINAL SINGLE POINT ENERGY     -1274.343477368558

DIPOLE MOMENT
-------------
                                X             Y             Z
Electronic contribution:     10.57739       9.67827      11.49471
Nuclear contribution   :    -12.23820     -10.83673     -12.29396
                        -----------------------------------------
Total Dipole Moment    :     -1.66082      -1.15847      -0.79925
                        -----------------------------------------
Magnitude (a.u.)       :      2.17696
Magnitude (Debye)      :      5.53339

Rotational constants in cm-1:     0.010576     0.008865     0.005806
Rotational constants in MHz :   317.057094   265.754990   174.072503

                             ****ORCA TERMINATED NORMALLY****
TOTAL RUN TIME: 0 days 1 hours 39 minutes 44 seconds 524 msec
