                         Program Version 4.2.0 -  RELEASE  -
|  1> ! ri-mp2 cc-pvtz cc-pvtz/c TightSCF  NoKeepInts
|  2>
|  3> %scf
|  4>   MaxCore 4096
|  5> end
|  6> *xyz  0  1
|  7>     C       14.6376204   15.7196239   17.1472136
|  8>     C       15.8213230   14.8383534   16.7108537
|  9>     O       16.6973056   15.6068552   15.8628382
| 10>     C       17.9532227   15.8681965   16.3282727
| 11>     O       18.7632106   14.9606104   16.3991474
| 12>     C       17.9503407   16.9669535   17.3445533
| 13>     C       17.3149563   18.1457203   17.1402634
| 14>     C       16.5644605   18.5712874   15.8956894
| 15>     N       17.3906059   19.1530384   18.1058362
| 16>     C       18.1915006   19.1078792   19.2173756
| 17>     S       18.3071414   20.3873632   20.2585907
| 18>     N       18.8922328   17.9449492   19.4237498
| 19>     C       18.7343504   16.7081837   18.6334636
| 20>     C       18.0573895   15.6199322   19.4614997
| 21>     C       18.6161360   14.3309117   19.5357723
| 22>     C       17.9802162   13.3156534   20.2695883
| 23>     C       16.7726098   13.5896471   20.9338476
| 24>     C       16.2106298   14.8711080   20.8596815
| 25>     O       15.0371731   15.1358259   21.4868476
| 26>     C       16.8464511   15.8797852   20.1295161
| 27>     H       14.9765853   16.5495886   17.7778234
| 28>     H       13.9198163   15.1289847   17.7295399
| 29>     H       14.1148604   16.1287512   16.2740437
| 30>     H       16.3501135   14.4480501   17.5912517
| 31>     H       15.4396193   13.9785309   16.1453368
| 32>     H       15.5164383   18.2535814   15.9413765
| 33>     H       17.0063276   18.1315136   14.9928650
| 34>     H       16.5808834   19.6594094   15.7574493
| 35>     H       16.8883407   20.0159851   17.9690445
| 36>     H       19.4553736   17.9307420   20.2645635
| 37>     H       19.7382945   16.3571508   18.3533732
| 38>     H       19.5386475   14.1102753   19.0033589
| 39>     H       18.4207588   12.3210216   20.3141260
| 40>     H       16.2764947   12.8069955   21.4983466
| 41>     H       14.7926218   14.3454297   21.9917621
| 42>     H       16.3929477   16.8641124   20.0851383
| 43> *
| 44>
| 45>                          ****END OF INPUT****

CARTESIAN COORDINATES (ANGSTROEM)
---------------------------------
  C     14.637620   15.719624   17.147214
  C     15.821323   14.838353   16.710854
  O     16.697306   15.606855   15.862838
  C     17.953223   15.868196   16.328273
  O     18.763211   14.960610   16.399147
  C     17.950341   16.966953   17.344553
  C     17.314956   18.145720   17.140263
  C     16.564460   18.571287   15.895689
  N     17.390606   19.153038   18.105836
  C     18.191501   19.107879   19.217376
  S     18.307141   20.387363   20.258591
  N     18.892233   17.944949   19.423750
  C     18.734350   16.708184   18.633464
  C     18.057389   15.619932   19.461500
  C     18.616136   14.330912   19.535772
  C     17.980216   13.315653   20.269588
  C     16.772610   13.589647   20.933848
  C     16.210630   14.871108   20.859681
  O     15.037173   15.135826   21.486848
  C     16.846451   15.879785   20.129516
  H     14.976585   16.549589   17.777823
  H     13.919816   15.128985   17.729540
  H     14.114860   16.128751   16.274044
  H     16.350113   14.448050   17.591252
  H     15.439619   13.978531   16.145337
  H     15.516438   18.253581   15.941377
  H     17.006328   18.131514   14.992865
  H     16.580883   19.659409   15.757449
  H     16.888341   20.015985   17.969044
  H     19.455374   17.930742   20.264564
  H     19.738294   16.357151   18.353373
  H     19.538647   14.110275   19.003359
  H     18.420759   12.321022   20.314126
  H     16.276495   12.806995   21.498347
  H     14.792622   14.345430   21.991762
  H     16.392948   16.864112   20.085138

 Total Charge           Charge          ....    0
 Multiplicity           Mult            ....    1
 Number of Electrons    NEL             ....  154
 Basis Dimension        Dim             ....  828

ORBITAL ENERGIES
----------------

  NO   OCC          E(Eh)            E(eV)
   0   2.0000     -91.890382     -2500.4644
   1   2.0000     -20.599486      -560.5405
   2   2.0000     -20.577709      -559.9479
   3   2.0000     -20.558254      -559.4185
   4   2.0000     -15.629391      -425.2973
   5   2.0000     -15.610379      -424.7800
   6   2.0000     -11.393940      -310.0449
   7   2.0000     -11.386212      -309.8346
   8   2.0000     -11.332557      -308.3746
   9   2.0000     -11.316004      -307.9241
  10   2.0000     -11.311842      -307.8109
  11   2.0000     -11.298412      -307.4454
  12   2.0000     -11.261644      -306.4449
  13   2.0000     -11.261379      -306.4377
  14   2.0000     -11.260628      -306.4173
  15   2.0000     -11.256146      -306.2953
  16   2.0000     -11.245922      -306.0171
  17   2.0000     -11.241338      -305.8924
  18   2.0000     -11.238545      -305.8164
  19   2.0000     -11.229774      -305.5777
  20   2.0000      -8.895456      -242.0577
  21   2.0000      -6.577033      -178.9702
  22   2.0000      -6.575023      -178.9155
  23   2.0000      -6.574437      -178.8995
  24   2.0000      -1.450637       -39.4738
  25   2.0000      -1.419251       -38.6198
  26   2.0000      -1.355040       -36.8725
  27   2.0000      -1.340957       -36.4893
  28   2.0000      -1.239596       -33.7311
  29   2.0000      -1.160108       -31.5681
  30   2.0000      -1.123407       -30.5695
  31   2.0000      -1.047266       -28.4976
  32   2.0000      -1.033234       -28.1157
  33   2.0000      -1.017575       -27.6896
  34   2.0000      -1.001612       -27.2553
  35   2.0000      -0.988179       -26.8897
  36   2.0000      -0.926119       -25.2010
  37   2.0000      -0.883967       -24.0540
  38   2.0000      -0.849847       -23.1255
  39   2.0000      -0.841333       -22.8938
  40   2.0000      -0.836234       -22.7551
  41   2.0000      -0.827881       -22.5278
  42   2.0000      -0.755778       -20.5658
  43   2.0000      -0.735744       -20.0206
  44   2.0000      -0.730428       -19.8759
  45   2.0000      -0.697741       -18.9865
  46   2.0000      -0.687737       -18.7143
  47   2.0000      -0.680034       -18.5047
  48   2.0000      -0.675526       -18.3820
  49   2.0000      -0.658343       -17.9144
  50   2.0000      -0.655904       -17.8481
  51   2.0000      -0.644792       -17.5457
  52   2.0000      -0.637466       -17.3463
  53   2.0000      -0.608989       -16.5714
  54   2.0000      -0.606876       -16.5139
  55   2.0000      -0.603651       -16.4262
  56   2.0000      -0.598572       -16.2880
  57   2.0000      -0.579496       -15.7689
  58   2.0000      -0.578526       -15.7425
  59   2.0000      -0.574945       -15.6450
  60   2.0000      -0.563604       -15.3364
  61   2.0000      -0.551784       -15.0148
  62   2.0000      -0.543716       -14.7953
  63   2.0000      -0.524948       -14.2846
  64   2.0000      -0.516424       -14.0526
  65   2.0000      -0.510531       -13.8923
  66   2.0000      -0.504199       -13.7200
  67   2.0000      -0.499455       -13.5909
  68   2.0000      -0.483393       -13.1538
  69   2.0000      -0.467120       -12.7110
  70   2.0000      -0.454419       -12.3654
  71   2.0000      -0.451638       -12.2897
  72   2.0000      -0.355875        -9.6838
  73   2.0000      -0.351426        -9.5628
  74   2.0000      -0.329772        -8.9735
  75   2.0000      -0.323764        -8.8101
  76   2.0000      -0.317688        -8.6447
  77   0.0000       0.069478         1.8906
  78   0.0000       0.100772         2.7421
  79   0.0000       0.118995         3.2380
  80   0.0000       0.128100         3.4858
  81   0.0000       0.132915         3.6168

MULLIKEN ATOMIC CHARGES
-----------------------
   0 C :   -0.316695
   1 C :    0.034904
   2 O :   -0.380815
   3 C :    0.457055
   4 O :   -0.383823
   5 C :   -0.190496
   6 C :    0.111853
   7 C :   -0.284111
   8 N :   -0.123435
   9 C :    0.194850
  10 S :   -0.437801
  11 N :   -0.201977
  12 C :    0.056581
  13 C :    0.016715
  14 C :   -0.161274
  15 C :   -0.135344
  16 C :   -0.277507
  17 C :    0.316186
  18 O :   -0.360201
  19 C :   -0.280353
  20 H :    0.097326
  21 H :    0.120297
  22 H :    0.107478
  23 H :    0.105135
  24 H :    0.121121
  25 H :    0.125809
  26 H :    0.125106
  27 H :    0.112226
  28 H :    0.197981
  29 H :    0.194559
  30 H :    0.159356
  31 H :    0.162078
  32 H :    0.162791
  33 H :    0.132994
  34 H :    0.241613
  35 H :    0.179817
Sum of atomic charges:   -0.0000000

LOEWDIN ATOMIC CHARGES
----------------------
   0 C :    0.103251
   1 C :   -0.009265
   2 O :    0.278750
   3 C :   -0.420816
   4 O :    0.137627
   5 C :   -0.093265
   6 C :   -0.080769
   7 C :    0.128186
   8 N :    0.404188
   9 C :   -0.457637
  10 S :   -0.035196
  11 N :    0.396961
  12 C :   -0.044828
  13 C :   -0.044263
  14 C :    0.020475
  15 C :    0.042490
  16 C :   -0.001454
  17 C :   -0.194628
  18 O :    0.394818
  19 C :    0.029858
  20 H :   -0.033778
  21 H :   -0.021795
  22 H :   -0.030029
  23 H :   -0.026031
  24 H :   -0.024961
  25 H :   -0.011968
  26 H :   -0.007607
  27 H :   -0.017387
  28 H :   -0.058111
  29 H :   -0.064016
  30 H :   -0.003695
  31 H :   -0.023297
  32 H :   -0.019220
  33 H :   -0.034688
  34 H :   -0.153164
  35 H :   -0.024736

  Mayer bond orders larger than 0.100000
B(  0-C ,  1-C ) :   0.9671 B(  0-C , 20-H ) :   0.9743 B(  0-C , 21-H ) :   0.9771
B(  0-C , 22-H ) :   0.9759 B(  1-C ,  2-O ) :   0.8829 B(  1-C , 23-H ) :   0.9671
B(  1-C , 24-H ) :   0.9857 B(  2-O ,  3-C ) :   1.0925 B(  3-C ,  4-O ) :   2.0560
B(  3-C ,  5-C ) :   0.9899 B(  5-C ,  6-C ) :   1.6789 B(  5-C , 12-C ) :   0.9583
B(  6-C ,  7-C ) :   0.9558 B(  6-C ,  8-N ) :   1.1252 B(  7-C , 25-H ) :   0.9613
B(  7-C , 26-H ) :   0.9715 B(  7-C , 27-H ) :   0.9855 B(  8-N ,  9-C ) :   1.1863
B(  8-N , 28-H ) :   0.9502 B(  9-C , 10-S ) :   1.6150 B(  9-C , 11-N ) :   1.2940
B( 11-N , 12-C ) :   0.9930 B( 11-N , 29-H ) :   0.9516 B( 12-C , 13-C ) :   0.9457
B( 12-C , 30-H ) :   0.9977 B( 13-C , 14-C ) :   1.3856 B( 13-C , 19-C ) :   1.3519
B( 14-C , 15-C ) :   1.3947 B( 14-C , 31-H ) :   0.9618 B( 15-C , 16-C ) :   1.3635
B( 15-C , 32-H ) :   0.9707 B( 16-C , 17-C ) :   1.3303 B( 16-C , 33-H ) :   0.9840
B( 17-C , 18-O ) :   1.1078 B( 17-C , 19-C ) :   1.3729 B( 18-O , 34-H ) :   0.9796
B( 19-C , 35-H ) :   0.9539

MP2 TOTAL ENERGY:    -1274.318791439 Eh
FINAL SINGLE POINT ENERGY     -1274.318791439009

DIPOLE MOMENT
-------------
                                X             Y             Z
Electronic contribution:     10.34526       6.71370       5.67734
Nuclear contribution   :    -11.51777      -7.94921      -6.11029
                        -----------------------------------------
Total Dipole Moment    :     -1.17251      -1.23552      -0.43295
                        -----------------------------------------
Magnitude (a.u.)       :      1.75748
Magnitude (Debye)      :      4.46716

Rotational constants in cm-1:     0.012210     0.009453     0.007161
Rotational constants in MHz :   366.041842   283.396524   214.694251

                             ****ORCA TERMINATED NORMALLY****
TOTAL RUN TIME: 0 days 1 hours 51 minutes 3 seconds 35 msec
