                         Program Version 4.2.0 -  RELEASE  -
|  1> ! ri-mp2 cc-pvtz cc-pvtz/c TightSCF  NoKeepInts
|  2>
|  3> %scf
|  4>   MaxCore 4096
|  5> end
|  6> *xyz  0  1
|  7>     C       15.0364176   14.4734575   16.9066100
|  8>     C       16.4538980   13.9509788   16.5766633
|  9>     O       17.4562918   14.9914488   16.4635827
| 10>     C       17.1509548   16.3113655   16.2778633
| 11>     O       16.4019700   16.6784143   15.3893747
| 12>     C       17.7226398   17.2066734   17.3434197
| 13>     C       17.5264740   18.5500106   17.3451206
| 14>     C       16.7262594   19.3619455   16.3491669
| 15>     N       18.1265456   19.3450841   18.3262171
| 16>     C       19.0284011   18.8965262   19.2537542
| 17>     S       19.7801306   19.9221001   20.3115346
| 18>     N       19.2825836   17.5488748   19.2573419
| 19>     C       18.5590796   16.5473616   18.4532345
| 20>     C       17.7139826   15.6722940   19.3738399
| 21>     C       18.0835613   14.3370943   19.6224595
| 22>     C       17.3055536   13.5248383   20.4645050
| 23>     C       16.1517812   14.0534759   21.0679415
| 24>     C       15.7875809   15.3862118   20.8322227
| 25>     O       14.6750513   15.9001243   21.4140939
| 26>     C       16.5635668   16.1919915   19.9935045
| 27>     H       15.0497644   15.1333181   17.7821543
| 28>     H       14.3697320   13.6326665   17.1322695
| 29>     H       14.6012585   15.0175377   16.0593346
| 30>     H       16.7658863   13.2378248   17.3500969
| 31>     H       16.4044913   13.4022302   15.6272082
| 32>     H       17.1227036   19.2274800   15.3346118
| 33>     H       16.7328300   20.4363742   16.5667005
| 34>     H       15.6792674   19.0329183   16.3367537
| 35>     H       17.9556746   20.3379809   18.3344330
| 36>     H       19.9268454   17.2438370   19.9754484
| 37>     H       19.3125137   15.9121028   17.9664444
| 38>     H       18.9741134   13.9254151   19.1548205
| 39>     H       17.5983263   12.4925758   20.6491358
| 40>     H       15.5478497   13.4304799   21.7195997
| 41>     H       14.3046149   15.2160653   21.9919638
| 42>     H       16.2684052   17.2229220   19.8305742
| 43> *
| 44>
| 45>                          ****END OF INPUT****

CARTESIAN COORDINATES (ANGSTROEM)
---------------------------------
  C     15.036418   14.473458   16.906610
  C     16.453898   13.950979   16.576663
  O     17.456292   14.991449   16.463583
  C     17.150955   16.311366   16.277863
  O     16.401970   16.678414   15.389375
  C     17.722640   17.206673   17.343420
  C     17.526474   18.550011   17.345121
  C     16.726259   19.361945   16.349167
  N     18.126546   19.345084   18.326217
  C     19.028401   18.896526   19.253754
  S     19.780131   19.922100   20.311535
  N     19.282584   17.548875   19.257342
  C     18.559080   16.547362   18.453234
  C     17.713983   15.672294   19.373840
  C     18.083561   14.337094   19.622459
  C     17.305554   13.524838   20.464505
  C     16.151781   14.053476   21.067941
  C     15.787581   15.386212   20.832223
  O     14.675051   15.900124   21.414094
  C     16.563567   16.191992   19.993504
  H     15.049764   15.133318   17.782154
  H     14.369732   13.632666   17.132269
  H     14.601259   15.017538   16.059335
  H     16.765886   13.237825   17.350097
  H     16.404491   13.402230   15.627208
  H     17.122704   19.227480   15.334612
  H     16.732830   20.436374   16.566700
  H     15.679267   19.032918   16.336754
  H     17.955675   20.337981   18.334433
  H     19.926845   17.243837   19.975448
  H     19.312514   15.912103   17.966444
  H     18.974113   13.925415   19.154820
  H     17.598326   12.492576   20.649136
  H     15.547850   13.430480   21.719600
  H     14.304615   15.216065   21.991964
  H     16.268405   17.222922   19.830574

 Total Charge           Charge          ....    0
 Multiplicity           Mult            ....    1
 Number of Electrons    NEL             ....  154
 Basis Dimension        Dim             ....  828

ORBITAL ENERGIES
----------------

  NO   OCC          E(Eh)            E(eV)
   0   2.0000     -91.889765     -2500.4476
   1   2.0000     -20.600521      -560.5687
   2   2.0000     -20.586908      -560.1982
   3   2.0000     -20.542857      -558.9995
   4   2.0000     -15.630045      -425.3152
   5   2.0000     -15.609081      -424.7447
   6   2.0000     -11.393919      -310.0443
   7   2.0000     -11.384760      -309.7951
   8   2.0000     -11.336657      -308.4861
   9   2.0000     -11.317906      -307.9759
  10   2.0000     -11.310177      -307.7656
  11   2.0000     -11.298932      -307.4596
  12   2.0000     -11.263287      -306.4896
  13   2.0000     -11.259719      -306.3925
  14   2.0000     -11.258613      -306.3624
  15   2.0000     -11.252598      -306.1988
  16   2.0000     -11.247283      -306.0541
  17   2.0000     -11.242161      -305.9148
  18   2.0000     -11.241910      -305.9079
  19   2.0000     -11.222960      -305.3923
  20   2.0000      -8.894818      -242.0403
  21   2.0000      -6.576390      -178.9527
  22   2.0000      -6.574388      -178.8982
  23   2.0000      -6.573799      -178.8822
  24   2.0000      -1.442907       -39.2635
  25   2.0000      -1.420207       -38.6458
  26   2.0000      -1.350611       -36.7520
  27   2.0000      -1.341069       -36.4924
  28   2.0000      -1.239655       -33.7327
  29   2.0000      -1.161249       -31.5992
  30   2.0000      -1.121071       -30.5059
  31   2.0000      -1.045164       -28.4404
  32   2.0000      -1.031939       -28.0805
  33   2.0000      -1.019420       -27.7398
  34   2.0000      -0.997188       -27.1349
  35   2.0000      -0.985540       -26.8179
  36   2.0000      -0.924351       -25.1529
  37   2.0000      -0.896714       -24.4008
  38   2.0000      -0.848399       -23.0861
  39   2.0000      -0.841541       -22.8995
  40   2.0000      -0.837893       -22.8002
  41   2.0000      -0.818080       -22.2611
  42   2.0000      -0.744563       -20.2606
  43   2.0000      -0.733942       -19.9716
  44   2.0000      -0.720911       -19.6170
  45   2.0000      -0.699412       -19.0320
  46   2.0000      -0.690214       -18.7817
  47   2.0000      -0.673390       -18.3239
  48   2.0000      -0.671194       -18.2641
  49   2.0000      -0.659871       -17.9560
  50   2.0000      -0.652873       -17.7656
  51   2.0000      -0.642912       -17.4945
  52   2.0000      -0.636520       -17.3206
  53   2.0000      -0.622543       -16.9402
  54   2.0000      -0.610942       -16.6246
  55   2.0000      -0.603336       -16.4176
  56   2.0000      -0.600573       -16.3424
  57   2.0000      -0.580638       -15.8000
  58   2.0000      -0.571484       -15.5509
  59   2.0000      -0.566660       -15.4196
  60   2.0000      -0.549382       -14.9494
  61   2.0000      -0.542787       -14.7700
  62   2.0000      -0.534643       -14.5484
  63   2.0000      -0.528276       -14.3751
  64   2.0000      -0.523503       -14.2452
  65   2.0000      -0.514847       -14.0097
  66   2.0000      -0.503187       -13.6924
  67   2.0000      -0.496556       -13.5120
  68   2.0000      -0.486639       -13.2421
  69   2.0000      -0.463560       -12.6141
  70   2.0000      -0.454836       -12.3767
  71   2.0000      -0.441973       -12.0267
  72   2.0000      -0.355182        -9.6650
  73   2.0000      -0.352914        -9.6033
  74   2.0000      -0.329604        -8.9690
  75   2.0000      -0.325477        -8.8567
  76   2.0000      -0.317146        -8.6300
  77   0.0000       0.072785         1.9806
  78   0.0000       0.101424         2.7599
  79   0.0000       0.122763         3.3406
  80   0.0000       0.130300         3.5456
  81   0.0000       0.134788         3.6678

MULLIKEN ATOMIC CHARGES
-----------------------
   0 C :   -0.326076
   1 C :    0.036749
   2 O :   -0.388675
   3 C :    0.490419
   4 O :   -0.421410
   5 C :   -0.257846
   6 C :    0.160219
   7 C :   -0.271699
   8 N :   -0.122751
   9 C :    0.212378
  10 S :   -0.439081
  11 N :   -0.205427
  12 C :    0.065511
  13 C :    0.071643
  14 C :   -0.209475
  15 C :   -0.121610
  16 C :   -0.277374
  17 C :    0.326138
  18 O :   -0.359378
  19 C :   -0.294333
  20 H :    0.105979
  21 H :    0.102683
  22 H :    0.127821
  23 H :    0.107953
  24 H :    0.118431
  25 H :    0.133280
  26 H :    0.095276
  27 H :    0.130630
  28 H :    0.197831
  29 H :    0.194460
  30 H :    0.151617
  31 H :    0.156136
  32 H :    0.165443
  33 H :    0.132925
  34 H :    0.241364
  35 H :    0.170250
Sum of atomic charges:   -0.0000000

LOEWDIN ATOMIC CHARGES
----------------------
   0 C :    0.105609
   1 C :   -0.010746
   2 O :    0.287909
   3 C :   -0.418311
   4 O :    0.108602
   5 C :   -0.097672
   6 C :   -0.058342
   7 C :    0.131629
   8 N :    0.406862
   9 C :   -0.456260
  10 S :   -0.034617
  11 N :    0.396437
  12 C :   -0.052373
  13 C :   -0.038336
  14 C :    0.016426
  15 C :    0.040079
  16 C :   -0.001582
  17 C :   -0.190076
  18 O :    0.396414
  19 C :    0.031706
  20 H :   -0.029821
  21 H :   -0.024837
  22 H :   -0.025698
  23 H :   -0.029377
  24 H :   -0.028634
  25 H :   -0.003231
  26 H :   -0.023385
  27 H :   -0.005088
  28 H :   -0.057431
  29 H :   -0.064865
  30 H :   -0.009319
  31 H :   -0.029128
  32 H :   -0.020587
  33 H :   -0.034816
  34 H :   -0.152982
  35 H :   -0.024162

  Mayer bond orders larger than 0.100000
B(  0-C ,  1-C ) :   0.9583 B(  0-C , 20-H ) :   0.9711 B(  0-C , 21-H ) :   0.9766
B(  0-C , 22-H ) :   0.9726 B(  1-C ,  2-O ) :   0.8842 B(  1-C , 23-H ) :   0.9759
B(  1-C , 24-H ) :   0.9860 B(  2-O ,  3-C ) :   1.1215 B(  3-C ,  4-O ) :   1.9954
B(  3-C ,  5-C ) :   1.0582 B(  5-C ,  6-C ) :   1.6494 B(  5-C , 12-C ) :   0.9705
B(  6-C ,  7-C ) :   0.9663 B(  6-C ,  8-N ) :   1.1620 B(  7-C , 25-H ) :   0.9593
B(  7-C , 26-H ) :   0.9901 B(  7-C , 27-H ) :   0.9612 B(  8-N ,  9-C ) :   1.1820
B(  8-N , 28-H ) :   0.9478 B(  9-C , 10-S ) :   1.6079 B(  9-C , 11-N ) :   1.3060
B( 11-N , 12-C ) :   0.9798 B( 11-N , 29-H ) :   0.9523 B( 12-C , 13-C ) :   0.9383
B( 12-C , 30-H ) :   1.0015 B( 13-C , 14-C ) :   1.3446 B( 13-C , 19-C ) :   1.3716
B( 14-C , 15-C ) :   1.3817 B( 14-C , 31-H ) :   0.9728 B( 15-C , 16-C ) :   1.3654
B( 15-C , 32-H ) :   0.9692 B( 16-C , 17-C ) :   1.3298 B( 16-C , 33-H ) :   0.9837
B( 17-C , 18-O ) :   1.1086 B( 17-C , 19-C ) :   1.3641 B( 18-O , 34-H ) :   0.9794
B( 19-C , 35-H ) :   0.9597

MP2 TOTAL ENERGY:    -1274.338436790 Eh
FINAL SINGLE POINT ENERGY     -1274.338436789785

DIPOLE MOMENT
-------------
                                X             Y             Z
Electronic contribution:      9.98081       9.30318       5.89830
Nuclear contribution   :    -11.00074     -10.99278      -5.89624
                        -----------------------------------------
Total Dipole Moment    :     -1.01992      -1.68961       0.00206
                        -----------------------------------------
Magnitude (a.u.)       :      1.97358
Magnitude (Debye)      :      5.01644

Rotational constants in cm-1:     0.012598     0.008975     0.006548
Rotational constants in MHz :   377.675071   269.075623   196.290392

                             ****ORCA TERMINATED NORMALLY****
TOTAL RUN TIME: 0 days 2 hours 43 minutes 54 seconds 491 msec
