                         Program Version 4.2.0 -  RELEASE  -
|  1> ! ri-mp2 cc-pvtz cc-pvtz/c TightSCF  NoKeepInts
|  2>
|  3> %scf
|  4>   MaxCore 4096
|  5> end
|  6> *xyz  0  1
|  7>     C       15.5784857   13.6489626   15.5736329
|  8>     C       15.1268033   15.0976761   15.8577383
|  9>     O       16.2091950   16.0516837   16.0011410
| 10>     C       17.3801650   15.8350479   16.6797930
| 11>     O       17.8980221   14.7395486   16.8105399
| 12>     C       17.7741566   16.9900757   17.5562534
| 13>     C       17.4063746   18.2820486   17.3503572
| 14>     C       16.5717534   18.8452011   16.2180846
| 15>     N       17.8782867   19.2835113   18.2053946
| 16>     C       18.8245309   19.1017544   19.1790398
| 17>     S       19.4194534   20.3666415   20.0632322
| 18>     N       19.2529442   17.8146318   19.3817873
| 19>     C       18.6623987   16.6198201   18.7499463
| 20>     C       17.8833739   15.8022649   19.7773038
| 21>     C       18.1711245   14.4382312   19.9688187
| 22>     C       17.4538993   13.6794313   20.9088576
| 23>     C       16.4386349   14.2889171   21.6653991
| 24>     C       16.1458706   15.6461652   21.4750391
| 25>     O       15.1613116   16.2359369   22.1990488
| 26>     C       16.8610712   16.3986581   20.5381699
| 27>     H       16.3498548   13.6243337   14.7936647
| 28>     H       14.7287147   13.0469968   15.2303072
| 29>     H       15.9746182   13.1702340   16.4778365
| 30>     H       14.4733416   15.4334496   15.0423942
| 31>     H       14.5264421   15.0959185   16.7769673
| 32>     H       15.5150926   18.5801324   16.3471152
| 33>     H       16.9049456   18.4467553   15.2516018
| 34>     H       16.6339356   19.9381681   16.1508874
| 35>     H       17.5765995   20.2354125   18.0718991
| 36>     H       19.9284467   17.7025251   20.1267792
| 37>     H       19.4896869   16.0010369   18.3731568
| 38>     H       18.9438133   13.9602466   19.3714451
| 39>     H       17.6827641   12.6237091   21.0425918
| 40>     H       15.8810852   13.7061632   22.3909596
| 41>     H       14.8194605   15.5724490   22.8168900
| 42>     H       16.6203430   17.4482617   20.4099265
| 43> *
| 44>
| 45>                          ****END OF INPUT****

CARTESIAN COORDINATES (ANGSTROEM)
---------------------------------
  C     15.578486   13.648963   15.573633
  C     15.126803   15.097676   15.857738
  O     16.209195   16.051684   16.001141
  C     17.380165   15.835048   16.679793
  O     17.898022   14.739549   16.810540
  C     17.774157   16.990076   17.556253
  C     17.406375   18.282049   17.350357
  C     16.571753   18.845201   16.218085
  N     17.878287   19.283511   18.205395
  C     18.824531   19.101754   19.179040
  S     19.419453   20.366641   20.063232
  N     19.252944   17.814632   19.381787
  C     18.662399   16.619820   18.749946
  C     17.883374   15.802265   19.777304
  C     18.171125   14.438231   19.968819
  C     17.453899   13.679431   20.908858
  C     16.438635   14.288917   21.665399
  C     16.145871   15.646165   21.475039
  O     15.161312   16.235937   22.199049
  C     16.861071   16.398658   20.538170
  H     16.349855   13.624334   14.793665
  H     14.728715   13.046997   15.230307
  H     15.974618   13.170234   16.477836
  H     14.473342   15.433450   15.042394
  H     14.526442   15.095918   16.776967
  H     15.515093   18.580132   16.347115
  H     16.904946   18.446755   15.251602
  H     16.633936   19.938168   16.150887
  H     17.576600   20.235412   18.071899
  H     19.928447   17.702525   20.126779
  H     19.489687   16.001037   18.373157
  H     18.943813   13.960247   19.371445
  H     17.682764   12.623709   21.042592
  H     15.881085   13.706163   22.390960
  H     14.819460   15.572449   22.816890
  H     16.620343   17.448262   20.409927

 Total Charge           Charge          ....    0
 Multiplicity           Mult            ....    1
 Number of Electrons    NEL             ....  154
 Basis Dimension        Dim             ....  828

ORBITAL ENERGIES
----------------

  NO   OCC          E(Eh)            E(eV)
   0   2.0000     -91.887459     -2500.3849
   1   2.0000     -20.595319      -560.4271
   2   2.0000     -20.592659      -560.3547
   3   2.0000     -20.548040      -559.1406
   4   2.0000     -15.627184      -425.2373
   5   2.0000     -15.606371      -424.6709
   6   2.0000     -11.398341      -310.1646
   7   2.0000     -11.382421      -309.7314
   8   2.0000     -11.333859      -308.4100
   9   2.0000     -11.308586      -307.7223
  10   2.0000     -11.306010      -307.6522
  11   2.0000     -11.305592      -307.6408
  12   2.0000     -11.259121      -306.3762
  13   2.0000     -11.258081      -306.3480
  14   2.0000     -11.254323      -306.2457
  15   2.0000     -11.248823      -306.0960
  16   2.0000     -11.238376      -305.8117
  17   2.0000     -11.234328      -305.7016
  18   2.0000     -11.231471      -305.6239
  19   2.0000     -11.222468      -305.3789
  20   2.0000      -8.892534      -241.9781
  21   2.0000      -6.574114      -178.8907
  22   2.0000      -6.572105      -178.8361
  23   2.0000      -6.571522      -178.8202
  24   2.0000      -1.446293       -39.3556
  25   2.0000      -1.412402       -38.4334
  26   2.0000      -1.357470       -36.9386
  27   2.0000      -1.338417       -36.4202
  28   2.0000      -1.236324       -33.6421
  29   2.0000      -1.152761       -31.3682
  30   2.0000      -1.118709       -30.4416
  31   2.0000      -1.041971       -28.3535
  32   2.0000      -1.033484       -28.1225
  33   2.0000      -1.010319       -27.4922
  34   2.0000      -0.996809       -27.1246
  35   2.0000      -0.982085       -26.7239
  36   2.0000      -0.921350       -25.0712
  37   2.0000      -0.893787       -24.3212
  38   2.0000      -0.847550       -23.0630
  39   2.0000      -0.836229       -22.7549
  40   2.0000      -0.828888       -22.5552
  41   2.0000      -0.819364       -22.2960
  42   2.0000      -0.744263       -20.2524
  43   2.0000      -0.727097       -19.7853
  44   2.0000      -0.725176       -19.7331
  45   2.0000      -0.691185       -18.8081
  46   2.0000      -0.684161       -18.6170
  47   2.0000      -0.679131       -18.4801
  48   2.0000      -0.671523       -18.2731
  49   2.0000      -0.665705       -18.1148
  50   2.0000      -0.645575       -17.5670
  51   2.0000      -0.643321       -17.5057
  52   2.0000      -0.634522       -17.2662
  53   2.0000      -0.603325       -16.4173
  54   2.0000      -0.600180       -16.3317
  55   2.0000      -0.598696       -16.2913
  56   2.0000      -0.596169       -16.2226
  57   2.0000      -0.581855       -15.8331
  58   2.0000      -0.573080       -15.5943
  59   2.0000      -0.571104       -15.5405
  60   2.0000      -0.559295       -15.2192
  61   2.0000      -0.544640       -14.8204
  62   2.0000      -0.536586       -14.6013
  63   2.0000      -0.523255       -14.2385
  64   2.0000      -0.517788       -14.0897
  65   2.0000      -0.510374       -13.8880
  66   2.0000      -0.498935       -13.5767
  67   2.0000      -0.494784       -13.4638
  68   2.0000      -0.479396       -13.0450
  69   2.0000      -0.461817       -12.5667
  70   2.0000      -0.456438       -12.4203
  71   2.0000      -0.445505       -12.1228
  72   2.0000      -0.353037        -9.6066
  73   2.0000      -0.344704        -9.3799
  74   2.0000      -0.326708        -8.8902
  75   2.0000      -0.315898        -8.5960
  76   2.0000      -0.314147        -8.5484
  77   0.0000       0.075800         2.0626
  78   0.0000       0.110608         3.0098
  79   0.0000       0.121444         3.3047
  80   0.0000       0.135280         3.6811
  81   0.0000       0.139135         3.7861

MULLIKEN ATOMIC CHARGES
-----------------------
   0 C :   -0.282142
   1 C :    0.047977
   2 O :   -0.371263
   3 C :    0.441535
   4 O :   -0.417766
   5 C :   -0.153513
   6 C :    0.140964
   7 C :   -0.285383
   8 N :   -0.122902
   9 C :    0.201475
  10 S :   -0.440885
  11 N :   -0.198840
  12 C :    0.039890
  13 C :    0.053707
  14 C :   -0.166217
  15 C :   -0.133964
  16 C :   -0.279699
  17 C :    0.311375
  18 O :   -0.358779
  19 C :   -0.272867
  20 H :    0.103459
  21 H :    0.093301
  22 H :    0.115846
  23 H :    0.097727
  24 H :    0.088268
  25 H :    0.124932
  26 H :    0.125958
  27 H :    0.102692
  28 H :    0.196693
  29 H :    0.193789
  30 H :    0.155107
  31 H :    0.155357
  32 H :    0.159777
  33 H :    0.128546
  34 H :    0.240151
  35 H :    0.165692
Sum of atomic charges:   -0.0000000

LOEWDIN ATOMIC CHARGES
----------------------
   0 C :    0.103130
   1 C :   -0.010701
   2 O :    0.289037
   3 C :   -0.411052
   4 O :    0.121172
   5 C :   -0.091305
   6 C :   -0.068713
   7 C :    0.124658
   8 N :    0.404303
   9 C :   -0.458772
  10 S :   -0.037253
  11 N :    0.397585
  12 C :   -0.046195
  13 C :   -0.039146
  14 C :    0.020950
  15 C :    0.040256
  16 C :   -0.002577
  17 C :   -0.192937
  18 O :    0.393091
  19 C :    0.028475
  20 H :   -0.024251
  21 H :   -0.029349
  22 H :   -0.025668
  23 H :   -0.024734
  24 H :   -0.030042
  25 H :   -0.010207
  26 H :   -0.008333
  27 H :   -0.020836
  28 H :   -0.059214
  29 H :   -0.063892
  30 H :   -0.005309
  31 H :   -0.025198
  32 H :   -0.021165
  33 H :   -0.036328
  34 H :   -0.154797
  35 H :   -0.024681

  Mayer bond orders larger than 0.100000
B(  0-C ,  1-C ) :   0.9784 B(  0-C , 20-H ) :   0.9747 B(  0-C , 21-H ) :   0.9739
B(  0-C , 22-H ) :   0.9724 B(  1-C ,  2-O ) :   0.9042 B(  1-C , 23-H ) :   0.9813
B(  1-C , 24-H ) :   0.9764 B(  2-O ,  3-C ) :   1.1009 B(  3-C ,  4-O ) :   1.9952
B(  3-C ,  5-C ) :   1.0475 B(  5-C ,  6-C ) :   1.6614 B(  5-C , 12-C ) :   0.9630
B(  6-C ,  7-C ) :   0.9537 B(  6-C ,  8-N ) :   1.1405 B(  7-C , 25-H ) :   0.9640
B(  7-C , 26-H ) :   0.9674 B(  7-C , 27-H ) :   0.9907 B(  8-N ,  9-C ) :   1.1822
B(  8-N , 28-H ) :   0.9492 B(  9-C , 10-S ) :   1.6093 B(  9-C , 11-N ) :   1.3029
B( 11-N , 12-C ) :   0.9910 B( 11-N , 29-H ) :   0.9519 B( 12-C , 13-C ) :   0.9466
B( 12-C , 30-H ) :   0.9993 B( 13-C , 14-C ) :   1.3759 B( 13-C , 19-C ) :   1.3691
B( 14-C , 15-C ) :   1.3939 B( 14-C , 31-H ) :   0.9644 B( 15-C , 16-C ) :   1.3628
B( 15-C , 32-H ) :   0.9711 B( 16-C , 17-C ) :   1.3314 B( 16-C , 33-H ) :   0.9858
B( 17-C , 18-O ) :   1.1084 B( 17-C , 19-C ) :   1.3777 B( 18-O , 34-H ) :   0.9805
B( 19-C , 35-H ) :   0.9583

MP2 TOTAL ENERGY:    -1274.332045182 Eh
FINAL SINGLE POINT ENERGY     -1274.332045181860

DIPOLE MOMENT
-------------
                                X             Y             Z
Electronic contribution:      9.95019      10.63934       9.78688
Nuclear contribution   :    -11.58132     -11.85580     -10.68384
                        -----------------------------------------
Total Dipole Moment    :     -1.63113      -1.21646      -0.89696
                        -----------------------------------------
Magnitude (a.u.)       :      2.22371
Magnitude (Debye)      :      5.65223

Rotational constants in cm-1:     0.011026     0.008993     0.006039
Rotational constants in MHz :   330.547532   269.611311   181.048906

                             ****ORCA TERMINATED NORMALLY****
TOTAL RUN TIME: 0 days 1 hours 34 minutes 51 seconds 414 msec
