                         Program Version 4.2.0 -  RELEASE  -
|  1> ! ri-mp2 cc-pvtz cc-pvtz/c TightSCF  NoKeepInts
|  2>
|  3> %scf
|  4>   MaxCore 4096
|  5> end
|  6> *xyz  0  1
|  7>     C       15.2787241   14.9966617   17.3566997
|  8>     C       15.5266014   15.3592184   15.8770171
|  9>     O       16.9280883   15.5013886   15.5368664
| 10>     C       17.9405384   15.6291789   16.4492268
| 11>     O       18.7521185   14.7313842   16.5838677
| 12>     C       17.9132613   16.8227335   17.3632395
| 13>     C       17.3750821   18.0292966   17.0471846
| 14>     C       16.7418199   18.4674756   15.7425956
| 15>     N       17.4777019   19.0928549   17.9490028
| 16>     C       18.2560729   19.0917360   19.0758528
| 17>     S       18.4293122   20.4409679   20.0159614
| 18>     N       18.8842179   17.9117663   19.3824665
| 19>     C       18.6417266   16.6259376   18.7006689
| 20>     C       17.8934372   15.6582073   19.6160514
| 21>     C       18.2920029   14.3110134   19.6982339
| 22>     C       17.6047838   13.4075118   20.5256374
| 23>     C       16.5081375   13.8533176   21.2821359
| 24>     C       16.1079806   15.1938954   21.2065275
| 25>     O       15.0438127   15.6261445   21.9285566
| 26>     C       16.7942418   16.0912426   20.3822245
| 27>     H       15.9281398   14.1734137   17.6824517
| 28>     H       14.2396672   14.6746866   17.4961515
| 29>     H       15.4392981   15.8613856   18.0086516
| 30>     H       15.1037712   14.5652306   15.2476310
| 31>     H       14.9806941   16.2781730   15.6364926
| 32>     H       17.1056378   17.8823838   14.8898403
| 33>     H       16.9841705   19.5128908   15.5128379
| 34>     H       15.6501942   18.3857837   15.7843165
| 35>     H       17.0330023   19.9716395   17.7355004
| 36>     H       19.4375425   17.9298952   20.2297922
| 37>     H       19.6251723   16.1849128   18.4805682
| 38>     H       19.1322424   13.9583099   19.1039288
| 39>     H       17.9214365   12.3669812   20.5732298
| 40>     H       15.9729771   13.1579971   21.9203207
| 41>     H       14.7404241   14.8830624   22.4716624
| 42>     H       16.4629677   17.1233212   20.3406072
| 43> *
| 44>
| 45>                          ****END OF INPUT****

CARTESIAN COORDINATES (ANGSTROEM)
---------------------------------
  C     15.278724   14.996662   17.356700
  C     15.526601   15.359218   15.877017
  O     16.928088   15.501389   15.536866
  C     17.940538   15.629179   16.449227
  O     18.752119   14.731384   16.583868
  C     17.913261   16.822733   17.363239
  C     17.375082   18.029297   17.047185
  C     16.741820   18.467476   15.742596
  N     17.477702   19.092855   17.949003
  C     18.256073   19.091736   19.075853
  S     18.429312   20.440968   20.015961
  N     18.884218   17.911766   19.382466
  C     18.641727   16.625938   18.700669
  C     17.893437   15.658207   19.616051
  C     18.292003   14.311013   19.698234
  C     17.604784   13.407512   20.525637
  C     16.508138   13.853318   21.282136
  C     16.107981   15.193895   21.206527
  O     15.043813   15.626144   21.928557
  C     16.794242   16.091243   20.382224
  H     15.928140   14.173414   17.682452
  H     14.239667   14.674687   17.496151
  H     15.439298   15.861386   18.008652
  H     15.103771   14.565231   15.247631
  H     14.980694   16.278173   15.636493
  H     17.105638   17.882384   14.889840
  H     16.984170   19.512891   15.512838
  H     15.650194   18.385784   15.784316
  H     17.033002   19.971639   17.735500
  H     19.437542   17.929895   20.229792
  H     19.625172   16.184913   18.480568
  H     19.132242   13.958310   19.103929
  H     17.921436   12.366981   20.573230
  H     15.972977   13.157997   21.920321
  H     14.740424   14.883062   22.471662
  H     16.462968   17.123321   20.340607

 Total Charge           Charge          ....    0
 Multiplicity           Mult            ....    1
 Number of Electrons    NEL             ....  154
 Basis Dimension        Dim             ....  828

ORBITAL ENERGIES
----------------

  NO   OCC          E(Eh)            E(eV)
   0   2.0000     -91.890979     -2500.4807
   1   2.0000     -20.596492      -560.4590
   2   2.0000     -20.588652      -560.2457
   3   2.0000     -20.551440      -559.2331
   4   2.0000     -15.630590      -425.3300
   5   2.0000     -15.609803      -424.7643
   6   2.0000     -11.397604      -310.1446
   7   2.0000     -11.386248      -309.8356
   8   2.0000     -11.338769      -308.5436
   9   2.0000     -11.312759      -307.8358
  10   2.0000     -11.309922      -307.7586
  11   2.0000     -11.309207      -307.7392
  12   2.0000     -11.266094      -306.5660
  13   2.0000     -11.265193      -306.5415
  14   2.0000     -11.258990      -306.3727
  15   2.0000     -11.252752      -306.2029
  16   2.0000     -11.242466      -305.9230
  17   2.0000     -11.238127      -305.8050
  18   2.0000     -11.234251      -305.6995
  19   2.0000     -11.231163      -305.6155
  20   2.0000      -8.896051      -242.0739
  21   2.0000      -6.577630      -178.9864
  22   2.0000      -6.575616      -178.9316
  23   2.0000      -6.575030      -178.9157
  24   2.0000      -1.445289       -39.3283
  25   2.0000      -1.416310       -38.5398
  26   2.0000      -1.356260       -36.9057
  27   2.0000      -1.342793       -36.5393
  28   2.0000      -1.240517       -33.7562
  29   2.0000      -1.156961       -31.4825
  30   2.0000      -1.122776       -30.5523
  31   2.0000      -1.045188       -28.4410
  32   2.0000      -1.036294       -28.1990
  33   2.0000      -1.015306       -27.6279
  34   2.0000      -1.004406       -27.3313
  35   2.0000      -0.988557       -26.9000
  36   2.0000      -0.926569       -25.2132
  37   2.0000      -0.898722       -24.4555
  38   2.0000      -0.853554       -23.2264
  39   2.0000      -0.840534       -22.8721
  40   2.0000      -0.832988       -22.6668
  41   2.0000      -0.824595       -22.4384
  42   2.0000      -0.744506       -20.2590
  43   2.0000      -0.731264       -19.8987
  44   2.0000      -0.729523       -19.8513
  45   2.0000      -0.694169       -18.8893
  46   2.0000      -0.686990       -18.6940
  47   2.0000      -0.680611       -18.5204
  48   2.0000      -0.674712       -18.3598
  49   2.0000      -0.663164       -18.0456
  50   2.0000      -0.654094       -17.7988
  51   2.0000      -0.650606       -17.7039
  52   2.0000      -0.640175       -17.4201
  53   2.0000      -0.626178       -17.0392
  54   2.0000      -0.607730       -16.5372
  55   2.0000      -0.604435       -16.4475
  56   2.0000      -0.600488       -16.3401
  57   2.0000      -0.584048       -15.8928
  58   2.0000      -0.574877       -15.6432
  59   2.0000      -0.564695       -15.3661
  60   2.0000      -0.558275       -15.1914
  61   2.0000      -0.547558       -14.8998
  62   2.0000      -0.540889       -14.7183
  63   2.0000      -0.536074       -14.5873
  64   2.0000      -0.520833       -14.1726
  65   2.0000      -0.512638       -13.9496
  66   2.0000      -0.500160       -13.6101
  67   2.0000      -0.489036       -13.3074
  68   2.0000      -0.487377       -13.2622
  69   2.0000      -0.471542       -12.8313
  70   2.0000      -0.456822       -12.4308
  71   2.0000      -0.448721       -12.2103
  72   2.0000      -0.358241        -9.7482
  73   2.0000      -0.347539        -9.4570
  74   2.0000      -0.330253        -8.9866
  75   2.0000      -0.321369        -8.7449
  76   2.0000      -0.318512        -8.6672
  77   0.0000       0.072281         1.9669
  78   0.0000       0.107130         2.9152
  79   0.0000       0.117033         3.1846
  80   0.0000       0.131677         3.5831
  81   0.0000       0.135390         3.6841

MULLIKEN ATOMIC CHARGES
-----------------------
   0 C :   -0.339439
   1 C :    0.037313
   2 O :   -0.363583
   3 C :    0.477502
   4 O :   -0.389277
   5 C :   -0.254665
   6 C :    0.183572
   7 C :   -0.338309
   8 N :   -0.128932
   9 C :    0.189551
  10 S :   -0.436619
  11 N :   -0.207498
  12 C :    0.058558
  13 C :    0.041231
  14 C :   -0.200811
  15 C :   -0.134550
  16 C :   -0.277496
  17 C :    0.319653
  18 O :   -0.358432
  19 C :   -0.280977
  20 H :    0.128555
  21 H :    0.118073
  22 H :    0.109509
  23 H :    0.124308
  24 H :    0.087898
  25 H :    0.147830
  26 H :    0.125577
  27 H :    0.121742
  28 H :    0.198082
  29 H :    0.196833
  30 H :    0.162217
  31 H :    0.170704
  32 H :    0.163485
  33 H :    0.131162
  34 H :    0.240798
  35 H :    0.176433
Sum of atomic charges:   -0.0000000

LOEWDIN ATOMIC CHARGES
----------------------
   0 C :    0.106595
   1 C :   -0.015325
   2 O :    0.285829
   3 C :   -0.420715
   4 O :    0.126417
   5 C :   -0.088306
   6 C :   -0.076443
   7 C :    0.126746
   8 N :    0.404523
   9 C :   -0.460838
  10 S :   -0.034580
  11 N :    0.397785
  12 C :   -0.044767
  13 C :   -0.041319
  14 C :    0.020854
  15 C :    0.041508
  16 C :   -0.002008
  17 C :   -0.193555
  18 O :    0.394488
  19 C :    0.028410
  20 H :   -0.018659
  21 H :   -0.022212
  22 H :   -0.034227
  23 H :   -0.021755
  24 H :   -0.037916
  25 H :   -0.007264
  26 H :   -0.013681
  27 H :   -0.018552
  28 H :   -0.057418
  29 H :   -0.063141
  30 H :   -0.002772
  31 H :   -0.023159
  32 H :   -0.019649
  33 H :   -0.035411
  34 H :   -0.153847
  35 H :   -0.025635

  Mayer bond orders larger than 0.100000
B(  0-C ,  1-C ) :   0.9615 B(  0-C , 20-H ) :   0.9655 B(  0-C , 21-H ) :   0.9756
B(  0-C , 22-H ) :   0.9711 B(  1-C ,  2-O ) :   0.8983 B(  1-C , 23-H ) :   0.9823
B(  1-C , 24-H ) :   0.9760 B(  2-O ,  3-C ) :   1.1316 B(  3-C ,  4-O ) :   2.0611
B(  3-C ,  5-C ) :   0.9707 B(  5-C ,  6-C ) :   1.6589 B(  5-C , 12-C ) :   0.9607
B(  6-C ,  7-C ) :   0.9418 B(  6-C ,  8-N ) :   1.1301 B(  7-C , 25-H ) :   0.9685
B(  7-C , 26-H ) :   0.9820 B(  7-C , 27-H ) :   0.9665 B(  8-N ,  9-C ) :   1.1841
B(  8-N , 28-H ) :   0.9506 B(  9-C , 10-S ) :   1.6143 B(  9-C , 11-N ) :   1.2974
B( 11-N , 12-C ) :   0.9870 B( 11-N , 29-H ) :   0.9511 B( 12-C , 13-C ) :   0.9489
B( 12-C , 30-H ) :   0.9982 B( 13-C , 14-C ) :   1.3854 B( 13-C , 19-C ) :   1.3420
B( 14-C , 15-C ) :   1.3966 B( 14-C , 31-H ) :   0.9589 B( 15-C , 16-C ) :   1.3608
B( 15-C , 32-H ) :   0.9703 B( 16-C , 17-C ) :   1.3310 B( 16-C , 33-H ) :   0.9849
B( 17-C , 18-O ) :   1.1113 B( 17-C , 19-C ) :   1.3679 B( 18-O , 34-H ) :   0.9800
B( 19-C , 35-H ) :   0.9582

MP2 TOTAL ENERGY:    -1274.330571633 Eh
FINAL SINGLE POINT ENERGY     -1274.330571633329

DIPOLE MOMENT
-------------
                                X             Y             Z
Electronic contribution:      9.58884       7.20728       6.19351
Nuclear contribution   :    -11.17279      -8.20717      -6.75650
                        -----------------------------------------
Total Dipole Moment    :     -1.58395      -0.99989      -0.56299
                        -----------------------------------------
Magnitude (a.u.)       :      1.95592
Magnitude (Debye)      :      4.97155

Rotational constants in cm-1:     0.011401     0.009859     0.006743
Rotational constants in MHz :   341.795132   295.560043   202.162283

                             ****ORCA TERMINATED NORMALLY****
TOTAL RUN TIME: 0 days 2 hours 20 minutes 43 seconds 941 msec
