                         Program Version 4.2.0 -  RELEASE  -
|  1> ! ri-mp2 cc-pvtz cc-pvtz/c TightSCF  NoKeepInts
|  2>
|  3> %scf
|  4>   MaxCore 4096
|  5> end
|  6> *xyz  0  1
|  7>     C       14.6456137   15.0322413   16.2957199
|  8>     C       15.8354332   14.8810940   17.2590732
|  9>     O       17.0399120   14.9287205   16.4681001
| 10>     C       17.7120756   16.0964514   16.2303554
| 11>     O       17.9851539   16.4171591   15.0887445
| 12>     C       17.8124038   17.0584162   17.3752011
| 13>     C       17.4119399   18.3437287   17.2382388
| 14>     C       16.6854424   18.9334383   16.0497681
| 15>     N       17.6852376   19.2743464   18.2431306
| 16>     C       18.4988154   19.0370203   19.3194548
| 17>     S       18.8663660   20.2201114   20.4145321
| 18>     N       18.9972482   17.7637068   19.4452393
| 19>     C       18.6086180   16.6075561   18.6129180
| 20>     C       17.9187734   15.5537714   19.4735537
| 21>     C       18.3078841   14.2037686   19.3853328
| 22>     C       17.6761127   13.2241201   20.1693988
| 23>     C       16.6499668   13.5964116   21.0541381
| 24>     C       16.2649471   14.9401299   21.1521244
| 25>     O       15.2708661   15.3023766   22.0007312
| 26>     C       16.8939422   15.9134146   20.3692884
| 27>     H       14.6782334   16.0009412   15.7824781
| 28>     H       13.6968939   14.9641302   16.8417924
| 29>     H       14.6622420   14.2402550   15.5362960
| 30>     H       15.7862032   15.6726798   18.0132244
| 31>     H       15.7669094   13.9107261   17.7679678
| 32>     H       15.9249831   18.2411840   15.6686542
| 33>     H       17.3903187   19.1234303   15.2295743
| 34>     H       16.1807592   19.8768793   16.2891313
| 35>     H       17.3497084   20.2203328   18.1524809
| 36>     H       19.5791302   17.6180401   20.2608259
| 37>     H       19.5406686   16.1601788   18.2387179
| 38>     H       19.0960158   13.9092095   18.6965279
| 39>     H       17.9821653   12.1820635   20.0891831
| 40>     H       16.1592702   12.8424070   21.6612806
| 41>     H       15.0075954   14.5134711   22.4987314
| 42>     H       16.5791507   16.9480878   20.4620906
| 43> *
| 44>
| 45>                          ****END OF INPUT****

CARTESIAN COORDINATES (ANGSTROEM)
---------------------------------
  C     14.645614   15.032241   16.295720
  C     15.835433   14.881094   17.259073
  O     17.039912   14.928721   16.468100
  C     17.712076   16.096451   16.230355
  O     17.985154   16.417159   15.088745
  C     17.812404   17.058416   17.375201
  C     17.411940   18.343729   17.238239
  C     16.685442   18.933438   16.049768
  N     17.685238   19.274346   18.243131
  C     18.498815   19.037020   19.319455
  S     18.866366   20.220111   20.414532
  N     18.997248   17.763707   19.445239
  C     18.608618   16.607556   18.612918
  C     17.918773   15.553771   19.473554
  C     18.307884   14.203769   19.385333
  C     17.676113   13.224120   20.169399
  C     16.649967   13.596412   21.054138
  C     16.264947   14.940130   21.152124
  O     15.270866   15.302377   22.000731
  C     16.893942   15.913415   20.369288
  H     14.678233   16.000941   15.782478
  H     13.696894   14.964130   16.841792
  H     14.662242   14.240255   15.536296
  H     15.786203   15.672680   18.013224
  H     15.766909   13.910726   17.767968
  H     15.924983   18.241184   15.668654
  H     17.390319   19.123430   15.229574
  H     16.180759   19.876879   16.289131
  H     17.349708   20.220333   18.152481
  H     19.579130   17.618040   20.260826
  H     19.540669   16.160179   18.238718
  H     19.096016   13.909209   18.696528
  H     17.982165   12.182063   20.089183
  H     16.159270   12.842407   21.661281
  H     15.007595   14.513471   22.498731
  H     16.579151   16.948088   20.462091

 Total Charge           Charge          ....    0
 Multiplicity           Mult            ....    1
 Number of Electrons    NEL             ....  154
 Basis Dimension        Dim             ....  828

ORBITAL ENERGIES
----------------

  NO   OCC          E(Eh)            E(eV)
   0   2.0000     -91.891172     -2500.4859
   1   2.0000     -20.603796      -560.6578
   2   2.0000     -20.591587      -560.3256
   3   2.0000     -20.551993      -559.2482
   4   2.0000     -15.628397      -425.2703
   5   2.0000     -15.612402      -424.8351
   6   2.0000     -11.395079      -310.0759
   7   2.0000     -11.386867      -309.8524
   8   2.0000     -11.331431      -308.3439
   9   2.0000     -11.321930      -308.0854
  10   2.0000     -11.319263      -308.0128
  11   2.0000     -11.297741      -307.4272
  12   2.0000     -11.268153      -306.6220
  13   2.0000     -11.262992      -306.4816
  14   2.0000     -11.260631      -306.4173
  15   2.0000     -11.257153      -306.3227
  16   2.0000     -11.251598      -306.1715
  17   2.0000     -11.246274      -306.0267
  18   2.0000     -11.246187      -306.0243
  19   2.0000     -11.228361      -305.5392
  20   2.0000      -8.896246      -242.0792
  21   2.0000      -6.577824      -178.9917
  22   2.0000      -6.575811      -178.9369
  23   2.0000      -6.575226      -178.9210
  24   2.0000      -1.446854       -39.3709
  25   2.0000      -1.423606       -38.7383
  26   2.0000      -1.357642       -36.9433
  27   2.0000      -1.341177       -36.4953
  28   2.0000      -1.241426       -33.7809
  29   2.0000      -1.165050       -31.7026
  30   2.0000      -1.124189       -30.5907
  31   2.0000      -1.050037       -28.5730
  32   2.0000      -1.034764       -28.1574
  33   2.0000      -1.023498       -27.8508
  34   2.0000      -1.002654       -27.2836
  35   2.0000      -0.989132       -26.9156
  36   2.0000      -0.928535       -25.2667
  37   2.0000      -0.885651       -24.0998
  38   2.0000      -0.852605       -23.2005
  39   2.0000      -0.844300       -22.9746
  40   2.0000      -0.842382       -22.9224
  41   2.0000      -0.835829       -22.7441
  42   2.0000      -0.756174       -20.5765
  43   2.0000      -0.737591       -20.0709
  44   2.0000      -0.723876       -19.6977
  45   2.0000      -0.702680       -19.1209
  46   2.0000      -0.693071       -18.8594
  47   2.0000      -0.680665       -18.5218
  48   2.0000      -0.673845       -18.3363
  49   2.0000      -0.669749       -18.2248
  50   2.0000      -0.653755       -17.7896
  51   2.0000      -0.647448       -17.6180
  52   2.0000      -0.637704       -17.3528
  53   2.0000      -0.613277       -16.6881
  54   2.0000      -0.608992       -16.5715
  55   2.0000      -0.604386       -16.4462
  56   2.0000      -0.601005       -16.3542
  57   2.0000      -0.583410       -15.8754
  58   2.0000      -0.578147       -15.7322
  59   2.0000      -0.569855       -15.5065
  60   2.0000      -0.559375       -15.2214
  61   2.0000      -0.556733       -15.1495
  62   2.0000      -0.545935       -14.8557
  63   2.0000      -0.530598       -14.4383
  64   2.0000      -0.523617       -14.2484
  65   2.0000      -0.518218       -14.1014
  66   2.0000      -0.506462       -13.7815
  67   2.0000      -0.501977       -13.6595
  68   2.0000      -0.485087       -13.1999
  69   2.0000      -0.469097       -12.7648
  70   2.0000      -0.453929       -12.3520
  71   2.0000      -0.447709       -12.1828
  72   2.0000      -0.358545        -9.7565
  73   2.0000      -0.353155        -9.6098
  74   2.0000      -0.331374        -9.0172
  75   2.0000      -0.329334        -8.9616
  76   2.0000      -0.319731        -8.7003
  77   0.0000       0.080278         2.1845
  78   0.0000       0.097749         2.6599
  79   0.0000       0.118452         3.2232
  80   0.0000       0.126873         3.4524
  81   0.0000       0.128369         3.4931

MULLIKEN ATOMIC CHARGES
-----------------------
   0 C :   -0.264493
   1 C :    0.015045
   2 O :   -0.333292
   3 C :    0.394050
   4 O :   -0.369238
   5 C :   -0.226324
   6 C :    0.158786
   7 C :   -0.281418
   8 N :   -0.126678
   9 C :    0.203072
  10 S :   -0.436576
  11 N :   -0.208577
  12 C :    0.046609
  13 C :    0.013537
  14 C :   -0.159534
  15 C :   -0.155083
  16 C :   -0.268554
  17 C :    0.306739
  18 O :   -0.353602
  19 C :   -0.249479
  20 H :    0.086443
  21 H :    0.093267
  22 H :    0.108345
  23 H :    0.103265
  24 H :    0.121299
  25 H :    0.117953
  26 H :    0.144254
  27 H :    0.097446
  28 H :    0.197481
  29 H :    0.196442
  30 H :    0.159786
  31 H :    0.147351
  32 H :    0.165274
  33 H :    0.135490
  34 H :    0.241727
  35 H :    0.179184
Sum of atomic charges:   -0.0000000

LOEWDIN ATOMIC CHARGES
----------------------
   0 C :    0.106202
   1 C :   -0.022875
   2 O :    0.301939
   3 C :   -0.421948
   4 O :    0.130859
   5 C :   -0.092008
   6 C :   -0.081409
   7 C :    0.130250
   8 N :    0.404449
   9 C :   -0.456957
  10 S :   -0.034305
  11 N :    0.396508
  12 C :   -0.051555
  13 C :   -0.043266
  14 C :    0.019114
  15 C :    0.043316
  16 C :   -0.000023
  17 C :   -0.192524
  18 O :    0.397145
  19 C :    0.031207
  20 H :   -0.031771
  21 H :   -0.026755
  22 H :   -0.023254
  23 H :   -0.040267
  24 H :   -0.022258
  25 H :   -0.011047
  26 H :   -0.002706
  27 H :   -0.021049
  28 H :   -0.057937
  29 H :   -0.064221
  30 H :   -0.008169
  31 H :   -0.027515
  32 H :   -0.018741
  33 H :   -0.033738
  34 H :   -0.152270
  35 H :   -0.022420

  Mayer bond orders larger than 0.100000
B(  0-C ,  1-C ) :   0.9815 B(  0-C , 20-H ) :   0.9770 B(  0-C , 21-H ) :   0.9769
B(  0-C , 22-H ) :   0.9799 B(  1-C ,  2-O ) :   0.8796 B(  1-C , 23-H ) :   0.9568
B(  1-C , 24-H ) :   0.9779 B(  2-O ,  3-C ) :   1.1753 B(  3-C ,  4-O ) :   2.1123
B(  3-C ,  5-C ) :   0.9265 B(  5-C ,  6-C ) :   1.7020 B(  5-C , 12-C ) :   0.9591
B(  6-C ,  7-C ) :   0.9503 B(  6-C ,  8-N ) :   1.1296 B(  7-C , 25-H ) :   0.9738
B(  7-C , 26-H ) :   0.9581 B(  7-C , 27-H ) :   0.9853 B(  8-N ,  9-C ) :   1.1929
B(  8-N , 28-H ) :   0.9497 B(  9-C , 10-S ) :   1.6152 B(  9-C , 11-N ) :   1.2855
B( 11-N , 12-C ) :   0.9960 B( 11-N , 29-H ) :   0.9494 B( 12-C , 13-C ) :   0.9418
B( 12-C , 30-H ) :   1.0102 B( 13-C , 14-C ) :   1.3660 B( 13-C , 19-C ) :   1.3496
B( 14-C , 15-C ) :   1.3995 B( 14-C , 31-H ) :   0.9738 B( 15-C , 16-C ) :   1.3629
B( 15-C , 32-H ) :   0.9702 B( 16-C , 17-C ) :   1.3265 B( 16-C , 33-H ) :   0.9830
B( 17-C , 18-O ) :   1.1148 B( 17-C , 19-C ) :   1.3712 B( 18-O , 34-H ) :   0.9787
B( 19-C , 35-H ) :   0.9574

MP2 TOTAL ENERGY:    -1274.327728769 Eh
FINAL SINGLE POINT ENERGY     -1274.327728769048

DIPOLE MOMENT
-------------
                                X             Y             Z
Electronic contribution:     10.86251       7.27446       7.31159
Nuclear contribution   :    -12.15300      -8.85759      -7.00737
                        -----------------------------------------
Total Dipole Moment    :     -1.29049      -1.58313       0.30422
                        -----------------------------------------
Magnitude (a.u.)       :      2.06500
Magnitude (Debye)      :      5.24882

Rotational constants in cm-1:     0.011574     0.009550     0.006400
Rotational constants in MHz :   346.992417   286.312966   191.870986

                             ****ORCA TERMINATED NORMALLY****
TOTAL RUN TIME: 0 days 1 hours 47 minutes 26 seconds 464 msec
