                         Program Version 4.2.0 -  RELEASE  -
|  1> ! ri-mp2 cc-pvtz cc-pvtz/c TightSCF  NoKeepInts
|  2>
|  3> %scf
|  4>   MaxCore 4096
|  5> end
|  6> *xyz  0  1
|  7>     C       14.5496217   14.6764474   16.5333096
|  8>     C       15.7182007   14.7527561   15.5351089
|  9>     O       16.4760637   15.9352251   15.8496635
| 10>     C       17.6310410   15.8315051   16.5707999
| 11>     O       18.2457460   14.7823027   16.6726424
| 12>     C       17.8730333   16.9905683   17.4935526
| 13>     C       17.3682332   18.2397426   17.3192371
| 14>     C       16.5043069   18.7444838   16.1817317
| 15>     N       17.6989529   19.2545320   18.2232937
| 16>     C       18.6232862   19.1393191   19.2278304
| 17>     S       19.0427856   20.4265015   20.1780289
| 18>     N       19.1834186   17.8995645   19.4041450
| 19>     C       18.7561973   16.6731767   18.7049596
| 20>     C       18.0369554   15.7322074   19.6679569
| 21>     C       18.4850208   14.4095982   19.8407281
| 22>     C       17.8198901   13.5366214   20.7179082
| 23>     C       16.6954252   13.9887821   21.4290926
| 24>     C       16.2433782   15.3040837   21.2568565
| 25>     O       15.1532115   15.7414369   21.9362451
| 26>     C       16.9075256   16.1706533   20.3832205
| 27>     H       14.9259185   14.5670063   17.5587896
| 28>     H       13.9093499   13.8143024   16.3106885
| 29>     H       13.9353255   15.5839652   16.4840140
| 30>     H       16.3260194   13.8385796   15.5751627
| 31>     H       15.3114168   14.8432057   14.5197922
| 32>     H       16.9128522   18.4319951   15.2126450
| 33>     H       16.4304265   19.8385198   16.1602952
| 34>     H       15.4858499   18.3445354   16.2632927
| 35>     H       17.2984061   20.1720642   18.1107420
| 36>     H       19.8383522   17.8333647   20.1726318
| 37>     H       19.6605041   16.1667689   18.3375788
| 38>     H       19.3429468   14.0517685   19.2767354
| 39>     H       18.1730905   12.5140031   20.8375680
| 40>     H       16.1774250   13.3171283   22.1054538
| 41>     H       14.8642662   15.0200224   22.5149352
| 42>     H       16.5425564   17.1852626   20.2673640
| 43> *
| 44>
| 45>                          ****END OF INPUT****

CARTESIAN COORDINATES (ANGSTROEM)
---------------------------------
  C     14.549622   14.676447   16.533310
  C     15.718201   14.752756   15.535109
  O     16.476064   15.935225   15.849663
  C     17.631041   15.831505   16.570800
  O     18.245746   14.782303   16.672642
  C     17.873033   16.990568   17.493553
  C     17.368233   18.239743   17.319237
  C     16.504307   18.744484   16.181732
  N     17.698953   19.254532   18.223294
  C     18.623286   19.139319   19.227830
  S     19.042786   20.426502   20.178029
  N     19.183419   17.899565   19.404145
  C     18.756197   16.673177   18.704960
  C     18.036955   15.732207   19.667957
  C     18.485021   14.409598   19.840728
  C     17.819890   13.536621   20.717908
  C     16.695425   13.988782   21.429093
  C     16.243378   15.304084   21.256857
  O     15.153211   15.741437   21.936245
  C     16.907526   16.170653   20.383221
  H     14.925918   14.567006   17.558790
  H     13.909350   13.814302   16.310689
  H     13.935325   15.583965   16.484014
  H     16.326019   13.838580   15.575163
  H     15.311417   14.843206   14.519792
  H     16.912852   18.431995   15.212645
  H     16.430426   19.838520   16.160295
  H     15.485850   18.344535   16.263293
  H     17.298406   20.172064   18.110742
  H     19.838352   17.833365   20.172632
  H     19.660504   16.166769   18.337579
  H     19.342947   14.051768   19.276735
  H     18.173091   12.514003   20.837568
  H     16.177425   13.317128   22.105454
  H     14.864266   15.020022   22.514935
  H     16.542556   17.185263   20.267364

 Total Charge           Charge          ....    0
 Multiplicity           Mult            ....    1
 Number of Electrons    NEL             ....  154
 Basis Dimension        Dim             ....  828

ORBITAL ENERGIES
----------------

  NO   OCC          E(Eh)            E(eV)
   0   2.0000     -91.888060     -2500.4012
   1   2.0000     -20.600450      -560.5667
   2   2.0000     -20.592962      -560.3630
   3   2.0000     -20.547277      -559.1198
   4   2.0000     -15.628100      -425.2622
   5   2.0000     -15.607025      -424.6888
   6   2.0000     -11.396223      -310.1070
   7   2.0000     -11.383149      -309.7512
   8   2.0000     -11.335150      -308.4451
   9   2.0000     -11.308925      -307.7315
  10   2.0000     -11.306297      -307.6600
  11   2.0000     -11.297986      -307.4338
  12   2.0000     -11.260142      -306.4040
  13   2.0000     -11.258965      -306.3720
  14   2.0000     -11.254580      -306.2527
  15   2.0000     -11.249039      -306.1019
  16   2.0000     -11.238709      -305.8208
  17   2.0000     -11.234691      -305.7115
  18   2.0000     -11.231800      -305.6328
  19   2.0000     -11.229325      -305.5655
  20   2.0000      -8.893126      -241.9943
  21   2.0000      -6.574704      -178.9068
  22   2.0000      -6.572696      -178.8522
  23   2.0000      -6.572112      -178.8363
  24   2.0000      -1.453509       -39.5520
  25   2.0000      -1.412725       -38.4422
  26   2.0000      -1.357515       -36.9399
  27   2.0000      -1.339159       -36.4404
  28   2.0000      -1.237033       -33.6614
  29   2.0000      -1.153392       -31.3854
  30   2.0000      -1.120004       -30.4769
  31   2.0000      -1.043339       -28.3907
  32   2.0000      -1.035474       -28.1767
  33   2.0000      -1.010693       -27.5023
  34   2.0000      -0.998082       -27.1592
  35   2.0000      -0.983553       -26.7638
  36   2.0000      -0.921774       -25.0828
  37   2.0000      -0.891717       -24.2649
  38   2.0000      -0.847273       -23.0555
  39   2.0000      -0.835667       -22.7396
  40   2.0000      -0.829150       -22.5623
  41   2.0000      -0.815275       -22.1848
  42   2.0000      -0.758433       -20.6380
  43   2.0000      -0.736410       -20.0387
  44   2.0000      -0.725722       -19.7479
  45   2.0000      -0.691811       -18.8251
  46   2.0000      -0.685265       -18.6470
  47   2.0000      -0.679002       -18.4766
  48   2.0000      -0.672885       -18.3101
  49   2.0000      -0.659560       -17.9476
  50   2.0000      -0.649664       -17.6783
  51   2.0000      -0.644629       -17.5412
  52   2.0000      -0.633830       -17.2474
  53   2.0000      -0.604151       -16.4398
  54   2.0000      -0.600936       -16.3523
  55   2.0000      -0.597704       -16.2644
  56   2.0000      -0.595881       -16.2148
  57   2.0000      -0.582179       -15.8419
  58   2.0000      -0.574648       -15.6370
  59   2.0000      -0.562072       -15.2947
  60   2.0000      -0.558392       -15.1946
  61   2.0000      -0.556149       -15.1336
  62   2.0000      -0.537303       -14.6208
  63   2.0000      -0.527761       -14.3611
  64   2.0000      -0.518337       -14.1047
  65   2.0000      -0.510057       -13.8794
  66   2.0000      -0.498230       -13.5575
  67   2.0000      -0.495823       -13.4920
  68   2.0000      -0.481825       -13.1111
  69   2.0000      -0.463410       -12.6100
  70   2.0000      -0.458948       -12.4886
  71   2.0000      -0.452630       -12.3167
  72   2.0000      -0.353993        -9.6326
  73   2.0000      -0.345179        -9.3928
  74   2.0000      -0.327257        -8.9051
  75   2.0000      -0.316291        -8.6067
  76   2.0000      -0.314676        -8.5628
  77   0.0000       0.075808         2.0628
  78   0.0000       0.111043         3.0216
  79   0.0000       0.119623         3.2551
  80   0.0000       0.134523         3.6606
  81   0.0000       0.141822         3.8592

MULLIKEN ATOMIC CHARGES
-----------------------
   0 C :   -0.276125
   1 C :    0.016933
   2 O :   -0.351562
   3 C :    0.443226
   4 O :   -0.422445
   5 C :   -0.172796
   6 C :    0.140944
   7 C :   -0.284896
   8 N :   -0.123717
   9 C :    0.203587
  10 S :   -0.439939
  11 N :   -0.198779
  12 C :    0.044648
  13 C :    0.052431
  14 C :   -0.159878
  15 C :   -0.133290
  16 C :   -0.281008
  17 C :    0.313497
  18 O :   -0.359346
  19 C :   -0.277880
  20 H :    0.110654
  21 H :    0.095965
  22 H :    0.089243
  23 H :    0.120381
  24 H :    0.102248
  25 H :    0.126028
  26 H :    0.102320
  27 H :    0.126760
  28 H :    0.196915
  29 H :    0.193962
  30 H :    0.153935
  31 H :    0.153866
  32 H :    0.159529
  33 H :    0.129026
  34 H :    0.240268
  35 H :    0.165293
Sum of atomic charges:   -0.0000000

LOEWDIN ATOMIC CHARGES
----------------------
   0 C :    0.104439
   1 C :   -0.015170
   2 O :    0.305880
   3 C :   -0.414380
   4 O :    0.106907
   5 C :   -0.091610
   6 C :   -0.068497
   7 C :    0.125248
   8 N :    0.404525
   9 C :   -0.458194
  10 S :   -0.036417
  11 N :    0.397664
  12 C :   -0.046087
  13 C :   -0.039479
  14 C :    0.022044
  15 C :    0.041018
  16 C :   -0.002581
  17 C :   -0.193323
  18 O :    0.393252
  19 C :    0.028500
  20 H :   -0.023320
  21 H :   -0.025820
  22 H :   -0.029832
  23 H :   -0.027099
  24 H :   -0.028565
  25 H :   -0.008221
  26 H :   -0.020661
  27 H :   -0.010480
  28 H :   -0.059064
  29 H :   -0.063809
  30 H :   -0.004982
  31 H :   -0.025141
  32 H :   -0.021009
  33 H :   -0.036193
  34 H :   -0.154713
  35 H :   -0.024830

  Mayer bond orders larger than 0.100000
B(  0-C ,  1-C ) :   0.9684 B(  0-C , 20-H ) :   0.9746 B(  0-C , 21-H ) :   0.9762
B(  0-C , 22-H ) :   0.9793 B(  1-C ,  2-O ) :   0.8874 B(  1-C , 23-H ) :   0.9732
B(  1-C , 24-H ) :   0.9840 B(  2-O ,  3-C ) :   1.1480 B(  3-C ,  4-O ) :   1.9948
B(  3-C ,  5-C ) :   1.0354 B(  5-C ,  6-C ) :   1.6560 B(  5-C , 12-C ) :   0.9651
B(  6-C ,  7-C ) :   0.9546 B(  6-C ,  8-N ) :   1.1441 B(  7-C , 25-H ) :   0.9676
B(  7-C , 26-H ) :   0.9901 B(  7-C , 27-H ) :   0.9633 B(  8-N ,  9-C ) :   1.1810
B(  8-N , 28-H ) :   0.9491 B(  9-C , 10-S ) :   1.6099 B(  9-C , 11-N ) :   1.3030
B( 11-N , 12-C ) :   0.9926 B( 11-N , 29-H ) :   0.9519 B( 12-C , 13-C ) :   0.9456
B( 12-C , 30-H ) :   0.9993 B( 13-C , 14-C ) :   1.3763 B( 13-C , 19-C ) :   1.3687
B( 14-C , 15-C ) :   1.3944 B( 14-C , 31-H ) :   0.9645 B( 15-C , 16-C ) :   1.3627
B( 15-C , 32-H ) :   0.9714 B( 16-C , 17-C ) :   1.3310 B( 16-C , 33-H ) :   0.9856
B( 17-C , 18-O ) :   1.1082 B( 17-C , 19-C ) :   1.3773 B( 18-O , 34-H ) :   0.9804
B( 19-C , 35-H ) :   0.9586

MP2 TOTAL ENERGY:    -1274.344009525 Eh
FINAL SINGLE POINT ENERGY     -1274.344009525450

DIPOLE MOMENT
-------------
                                X             Y             Z
Electronic contribution:     11.22288       9.09467       8.17191
Nuclear contribution   :    -12.64867     -10.40764      -9.15020
                        -----------------------------------------
Total Dipole Moment    :     -1.42578      -1.31298      -0.97830
                        -----------------------------------------
Magnitude (a.u.)       :      2.17113
Magnitude (Debye)      :      5.51859

Rotational constants in cm-1:     0.011039     0.009223     0.006347
Rotational constants in MHz :   330.942750   276.509076   190.291832

                             ****ORCA TERMINATED NORMALLY****
TOTAL RUN TIME: 0 days 1 hours 37 minutes 40 seconds 595 msec
