                         Program Version 4.2.0 -  RELEASE  -
|  1> ! ri-mp2 cc-pvtz cc-pvtz/c TightSCF  NoKeepInts
|  2>
|  3> %scf
|  4>   MaxCore 4096
|  5> end
|  6> *xyz  0  1
|  7>     C       14.6283910   16.1668384   16.7249073
|  8>     C       15.5815980   15.0091330   17.0735081
|  9>     O       16.7637596   14.9933068   16.2421042
| 10>     C       17.9063914   15.7357811   16.4225419
| 11>     O       18.9793437   15.2675766   16.0911383
| 12>     C       17.8517136   16.8592570   17.3999190
| 13>     C       17.3489949   18.0663832   17.0564048
| 14>     C       16.7738249   18.4606704   15.7124465
| 15>     N       17.4318612   19.1363810   17.9493806
| 16>     C       18.1018346   19.1029841   19.1446077
| 17>     S       18.1900140   20.4287278   20.1287933
| 18>     N       18.6993788   17.9139351   19.4847640
| 19>     C       18.6043938   16.6560040   18.7163307
| 20>     C       17.9955291   15.5305519   19.5465316
| 21>     C       18.4648109   14.2135494   19.3879600
| 22>     C       17.9012303   13.1582400   20.1238671
| 23>     C       16.8574479   13.4201198   21.0272527
| 24>     C       16.3836098   14.7291519   21.1862100
| 25>     O       15.3667443   14.9832545   22.0472596
| 26>     C       16.9442771   15.7781577   20.4503202
| 27>     H       14.8955352   17.0816594   17.2621694
| 28>     H       13.6060667   15.9085320   17.0274803
| 29>     H       14.6183158   16.3603216   15.6453250
| 30>     H       15.8339627   15.0206226   18.1387048
| 31>     H       15.0413693   14.0717026   16.8879356
| 32>     H       16.6653487   17.6057829   15.0343081
| 33>     H       17.4311441   19.1826661   15.2112586
| 34>     H       15.7853248   18.9235492   15.8206420
| 35>     H       17.0253145   20.0257527   17.7048003
| 36>     H       19.1773343   17.9168176   20.3771571
| 37>     H       19.6301650   16.3537088   18.4571283
| 38>     H       19.2637800   14.0054322   18.6786270
| 39>     H       18.2725162   12.1434763   19.9890666
| 40>     H       16.4188971   12.6071385   21.5967479
| 41>     H       15.1546505   14.1537313   22.5017159
| 42>     H       16.5521261   16.7811025   20.5846854
| 43> *
| 44>
| 45>                          ****END OF INPUT****

CARTESIAN COORDINATES (ANGSTROEM)
---------------------------------
  C     14.628391   16.166838   16.724907
  C     15.581598   15.009133   17.073508
  O     16.763760   14.993307   16.242104
  C     17.906391   15.735781   16.422542
  O     18.979344   15.267577   16.091138
  C     17.851714   16.859257   17.399919
  C     17.348995   18.066383   17.056405
  C     16.773825   18.460670   15.712447
  N     17.431861   19.136381   17.949381
  C     18.101835   19.102984   19.144608
  S     18.190014   20.428728   20.128793
  N     18.699379   17.913935   19.484764
  C     18.604394   16.656004   18.716331
  C     17.995529   15.530552   19.546532
  C     18.464811   14.213549   19.387960
  C     17.901230   13.158240   20.123867
  C     16.857448   13.420120   21.027253
  C     16.383610   14.729152   21.186210
  O     15.366744   14.983254   22.047260
  C     16.944277   15.778158   20.450320
  H     14.895535   17.081659   17.262169
  H     13.606067   15.908532   17.027480
  H     14.618316   16.360322   15.645325
  H     15.833963   15.020623   18.138705
  H     15.041369   14.071703   16.887936
  H     16.665349   17.605783   15.034308
  H     17.431144   19.182666   15.211259
  H     15.785325   18.923549   15.820642
  H     17.025315   20.025753   17.704800
  H     19.177334   17.916818   20.377157
  H     19.630165   16.353709   18.457128
  H     19.263780   14.005432   18.678627
  H     18.272516   12.143476   19.989067
  H     16.418897   12.607138   21.596748
  H     15.154651   14.153731   22.501716
  H     16.552126   16.781102   20.584685

 Total Charge           Charge          ....    0
 Multiplicity           Mult            ....    1
 Number of Electrons    NEL             ....  154
 Basis Dimension        Dim             ....  828

ORBITAL ENERGIES
----------------

  NO   OCC          E(Eh)            E(eV)
   0   2.0000     -91.890080     -2500.4562
   1   2.0000     -20.602384      -560.6194
   2   2.0000     -20.596037      -560.4466
   3   2.0000     -20.551693      -559.2400
   4   2.0000     -15.625948      -425.2037
   5   2.0000     -15.612400      -424.8350
   6   2.0000     -11.398405      -310.1664
   7   2.0000     -11.386981      -309.8555
   8   2.0000     -11.327458      -308.2358
   9   2.0000     -11.320190      -308.0380
  10   2.0000     -11.317297      -307.9593
  11   2.0000     -11.302462      -307.5556
  12   2.0000     -11.267234      -306.5970
  13   2.0000     -11.266287      -306.5713
  14   2.0000     -11.264046      -306.5103
  15   2.0000     -11.260639      -306.4176
  16   2.0000     -11.249156      -306.1051
  17   2.0000     -11.244707      -305.9840
  18   2.0000     -11.242250      -305.9172
  19   2.0000     -11.235061      -305.7216
  20   2.0000      -8.895194      -242.0505
  21   2.0000      -6.576784      -178.9634
  22   2.0000      -6.574756      -178.9082
  23   2.0000      -6.574182      -178.8926
  24   2.0000      -1.445351       -39.3300
  25   2.0000      -1.422200       -38.7000
  26   2.0000      -1.357585       -36.9418
  27   2.0000      -1.340028       -36.4640
  28   2.0000      -1.240385       -33.7526
  29   2.0000      -1.164113       -31.6771
  30   2.0000      -1.126277       -30.6476
  31   2.0000      -1.050648       -28.5896
  32   2.0000      -1.039286       -28.2804
  33   2.0000      -1.021979       -27.8095
  34   2.0000      -1.005281       -27.3551
  35   2.0000      -0.990549       -26.9542
  36   2.0000      -0.928879       -25.2761
  37   2.0000      -0.894749       -24.3474
  38   2.0000      -0.853076       -23.2134
  39   2.0000      -0.842814       -22.9341
  40   2.0000      -0.839354       -22.8400
  41   2.0000      -0.834448       -22.7065
  42   2.0000      -0.753951       -20.5161
  43   2.0000      -0.735733       -20.0203
  44   2.0000      -0.730731       -19.8842
  45   2.0000      -0.699822       -19.0431
  46   2.0000      -0.690558       -18.7910
  47   2.0000      -0.679640       -18.4939
  48   2.0000      -0.676875       -18.4187
  49   2.0000      -0.665047       -18.0969
  50   2.0000      -0.655098       -17.8261
  51   2.0000      -0.640603       -17.4317
  52   2.0000      -0.637828       -17.3562
  53   2.0000      -0.619110       -16.8468
  54   2.0000      -0.610821       -16.6213
  55   2.0000      -0.608715       -16.5640
  56   2.0000      -0.605715       -16.4823
  57   2.0000      -0.586583       -15.9617
  58   2.0000      -0.582207       -15.8427
  59   2.0000      -0.578130       -15.7317
  60   2.0000      -0.567303       -15.4371
  61   2.0000      -0.558124       -15.1873
  62   2.0000      -0.538930       -14.6650
  63   2.0000      -0.535264       -14.5653
  64   2.0000      -0.524184       -14.2638
  65   2.0000      -0.515629       -14.0310
  66   2.0000      -0.504128       -13.7180
  67   2.0000      -0.496939       -13.5224
  68   2.0000      -0.490310       -13.3420
  69   2.0000      -0.466976       -12.7071
  70   2.0000      -0.453773       -12.3478
  71   2.0000      -0.450103       -12.2479
  72   2.0000      -0.356863        -9.7107
  73   2.0000      -0.354155        -9.6371
  74   2.0000      -0.329966        -8.9788
  75   2.0000      -0.328060        -8.9270
  76   2.0000      -0.319251        -8.6873
  77   0.0000       0.090171         2.4537
  78   0.0000       0.102199         2.7810
  79   0.0000       0.116742         3.1767
  80   0.0000       0.125214         3.4073
  81   0.0000       0.127993         3.4829

MULLIKEN ATOMIC CHARGES
-----------------------
   0 C :   -0.320781
   1 C :    0.035817
   2 O :   -0.327523
   3 C :    0.394561
   4 O :   -0.376473
   5 C :   -0.164869
   6 C :    0.109905
   7 C :   -0.327016
   8 N :   -0.137347
   9 C :    0.208071
  10 S :   -0.442288
  11 N :   -0.227698
  12 C :    0.087610
  13 C :   -0.001365
  14 C :   -0.202239
  15 C :   -0.137294
  16 C :   -0.271032
  17 C :    0.311427
  18 O :   -0.356239
  19 C :   -0.256948
  20 H :    0.096170
  21 H :    0.120518
  22 H :    0.105687
  23 H :    0.106485
  24 H :    0.124512
  25 H :    0.121207
  26 H :    0.150381
  27 H :    0.119582
  28 H :    0.196846
  29 H :    0.202830
  30 H :    0.165721
  31 H :    0.172115
  32 H :    0.165625
  33 H :    0.134189
  34 H :    0.241703
  35 H :    0.178148
Sum of atomic charges:    0.0000000

LOEWDIN ATOMIC CHARGES
----------------------
   0 C :    0.103332
   1 C :   -0.015466
   2 O :    0.296557
   3 C :   -0.416923
   4 O :    0.126434
   5 C :   -0.081070
   6 C :   -0.104097
   7 C :    0.125069
   8 N :    0.402032
   9 C :   -0.455401
  10 S :   -0.038366
  11 N :    0.397564
  12 C :   -0.044032
  13 C :   -0.045278
  14 C :    0.020281
  15 C :    0.046372
  16 C :   -0.000114
  17 C :   -0.193710
  18 O :    0.396401
  19 C :    0.024838
  20 H :   -0.034052
  21 H :   -0.022039
  22 H :   -0.027047
  23 H :   -0.032917
  24 H :   -0.019408
  25 H :   -0.010129
  26 H :   -0.008735
  27 H :   -0.016767
  28 H :   -0.057575
  29 H :   -0.064054
  30 H :   -0.002517
  31 H :   -0.021241
  32 H :   -0.017450
  33 H :   -0.034027
  34 H :   -0.152456
  35 H :   -0.024011

  Mayer bond orders larger than 0.100000
B(  0-C ,  1-C ) :   0.9534 B(  0-C , 20-H ) :   0.9774 B(  0-C , 21-H ) :   0.9790
B(  0-C , 22-H ) :   0.9743 B(  1-C ,  2-O ) :   0.8985 B(  1-C , 23-H ) :   0.9632
B(  1-C , 24-H ) :   0.9872 B(  2-O ,  3-C ) :   1.1800 B(  3-C ,  4-O ) :   2.1025
B(  3-C ,  5-C ) :   0.8976 B(  5-C ,  6-C ) :   1.7188 B(  5-C , 12-C ) :   0.9486
B(  6-C ,  7-C ) :   0.9521 B(  6-C ,  8-N ) :   1.0954 B(  7-C , 25-H ) :   0.9804
B(  7-C , 26-H ) :   0.9656 B(  7-C , 27-H ) :   0.9675 B(  8-N ,  9-C ) :   1.2020
B(  8-N , 28-H ) :   0.9514 B(  9-C , 10-S ) :   1.6081 B(  9-C , 11-N ) :   1.2854
B( 11-N , 12-C ) :   0.9905 B( 11-N , 29-H ) :   0.9463 B( 12-C , 13-C ) :   0.9516
B( 12-C , 30-H ) :   0.9961 B( 13-C , 14-C ) :   1.3929 B( 13-C , 19-C ) :   1.3407
B( 14-C , 15-C ) :   1.3978 B( 14-C , 31-H ) :   0.9605 B( 15-C , 16-C ) :   1.3616
B( 15-C , 32-H ) :   0.9692 B( 16-C , 17-C ) :   1.3295 B( 16-C , 33-H ) :   0.9839
B( 17-C , 18-O ) :   1.1113 B( 17-C , 19-C ) :   1.3658 B( 18-O , 34-H ) :   0.9788
B( 19-C , 35-H ) :   0.9590

MP2 TOTAL ENERGY:    -1274.327574246 Eh
FINAL SINGLE POINT ENERGY     -1274.327574245573

DIPOLE MOMENT
-------------
                                X             Y             Z
Electronic contribution:     10.06782       4.97198       7.01686
Nuclear contribution   :    -11.54994      -6.22865      -7.24429
                        -----------------------------------------
Total Dipole Moment    :     -1.48212      -1.25667      -0.22743
                        -----------------------------------------
Magnitude (a.u.)       :      1.95643
Magnitude (Debye)      :      4.97286

Rotational constants in cm-1:     0.011964     0.009278     0.006816
Rotational constants in MHz :   358.673150   278.153222   204.325641

                             ****ORCA TERMINATED NORMALLY****
TOTAL RUN TIME: 0 days 1 hours 53 minutes 17 seconds 935 msec
