                         Program Version 4.2.0 -  RELEASE  -
|  1> ! ri-mp2 cc-pvtz cc-pvtz/c TightSCF  NoKeepInts
|  2>
|  3> %scf
|  4>   MaxCore 4096
|  5> end
|  6> *xyz  0  1
|  7>     C       15.8218549   13.1511567   16.1753892
|  8>     C       15.5501352   14.5518608   16.7481012
|  9>     O       16.7299003   15.3428098   16.5237624
| 10>     C       16.6012362   16.6997090   16.4509233
| 11>     O       15.6638691   17.2205358   15.8713658
| 12>     C       17.4928791   17.4186529   17.4268903
| 13>     C       17.4898406   18.7703022   17.5531165
| 14>     C       16.6379849   19.7608825   16.7883629
| 15>     N       18.3711208   19.3939097   18.4414187
| 16>     C       19.3574624   18.7553145   19.1443796
| 17>     S       20.4275339   19.5809514   20.0978180
| 18>     N       19.4174541   17.3915334   19.0129329
| 19>     C       18.4306312   16.5632875   18.2965992
| 20>     C       17.6652456   15.7023088   19.2976331
| 21>     C       17.8910620   14.3142758   19.3603747
| 22>     C       17.1800982   13.5145944   20.2708331
| 23>     C       16.2392084   14.1079828   21.1295732
| 24>     C       16.0177782   15.4909604   21.0755734
| 25>     O       15.1108892   16.0669503   21.9040505
| 26>     C       16.7250984   16.2838852   20.1667187
| 27>     H       14.9469542   12.5040342   16.3114356
| 28>     H       16.6762079   12.6860976   16.6823773
| 29>     H       16.0432172   13.2092683   15.1023171
| 30>     H       14.6827179   14.9798994   16.2270782
| 31>     H       15.3210967   14.4982275   17.8207292
| 32>     H       15.5745596   19.6064548   17.0119771
| 33>     H       16.7668222   19.6280926   15.7066335
| 34>     H       16.8784988   20.8045214   17.0225066
| 35>     H       18.3435158   20.3954024   18.5481406
| 36>     H       20.1333701   16.9455781   19.5719068
| 37>     H       18.9887445   15.8971718   17.6235003
| 38>     H       18.6141764   13.8523227   18.6933800
| 39>     H       17.3600799   12.4415642   20.3099290
| 40>     H       15.6886584   13.4949130   21.8356606
| 41>     H       14.7638942   15.3735729   22.4852995
| 42>     H       16.5432034   17.3530153   20.1453119
| 43> *
| 44>
| 45>                          ****END OF INPUT****

CARTESIAN COORDINATES (ANGSTROEM)
---------------------------------
  C     15.821855   13.151157   16.175389
  C     15.550135   14.551861   16.748101
  O     16.729900   15.342810   16.523762
  C     16.601236   16.699709   16.450923
  O     15.663869   17.220536   15.871366
  C     17.492879   17.418653   17.426890
  C     17.489841   18.770302   17.553117
  C     16.637985   19.760883   16.788363
  N     18.371121   19.393910   18.441419
  C     19.357462   18.755314   19.144380
  S     20.427534   19.580951   20.097818
  N     19.417454   17.391533   19.012933
  C     18.430631   16.563288   18.296599
  C     17.665246   15.702309   19.297633
  C     17.891062   14.314276   19.360375
  C     17.180098   13.514594   20.270833
  C     16.239208   14.107983   21.129573
  C     16.017778   15.490960   21.075573
  O     15.110889   16.066950   21.904051
  C     16.725098   16.283885   20.166719
  H     14.946954   12.504034   16.311436
  H     16.676208   12.686098   16.682377
  H     16.043217   13.209268   15.102317
  H     14.682718   14.979899   16.227078
  H     15.321097   14.498228   17.820729
  H     15.574560   19.606455   17.011977
  H     16.766822   19.628093   15.706634
  H     16.878499   20.804521   17.022507
  H     18.343516   20.395402   18.548141
  H     20.133370   16.945578   19.571907
  H     18.988744   15.897172   17.623500
  H     18.614176   13.852323   18.693380
  H     17.360080   12.441564   20.309929
  H     15.688658   13.494913   21.835661
  H     14.763894   15.373573   22.485299
  H     16.543203   17.353015   20.145312

 Total Charge           Charge          ....    0
 Multiplicity           Mult            ....    1
 Number of Electrons    NEL             ....  154
 Basis Dimension        Dim             ....  828

ORBITAL ENERGIES
----------------

  NO   OCC          E(Eh)            E(eV)
   0   2.0000     -91.889716     -2500.4463
   1   2.0000     -20.599507      -560.5411
   2   2.0000     -20.591549      -560.3245
   3   2.0000     -20.544254      -559.0376
   4   2.0000     -15.629925      -425.3119
   5   2.0000     -15.609214      -424.7483
   6   2.0000     -11.393632      -310.0365
   7   2.0000     -11.384810      -309.7964
   8   2.0000     -11.336401      -308.4792
   9   2.0000     -11.317267      -307.9585
  10   2.0000     -11.310574      -307.7764
  11   2.0000     -11.292811      -307.2930
  12   2.0000     -11.262482      -306.4677
  13   2.0000     -11.259055      -306.3745
  14   2.0000     -11.258581      -306.3616
  15   2.0000     -11.252710      -306.2018
  16   2.0000     -11.246229      -306.0255
  17   2.0000     -11.241347      -305.8926
  18   2.0000     -11.240935      -305.8814
  19   2.0000     -11.227159      -305.5065
  20   2.0000      -8.894773      -242.0391
  21   2.0000      -6.576345      -178.9514
  22   2.0000      -6.574342      -178.8969
  23   2.0000      -6.573753      -178.8809
  24   2.0000      -1.449951       -39.4552
  25   2.0000      -1.419180       -38.6179
  26   2.0000      -1.353640       -36.8344
  27   2.0000      -1.340964       -36.4895
  28   2.0000      -1.239606       -33.7314
  29   2.0000      -1.160401       -31.5761
  30   2.0000      -1.121109       -30.5069
  31   2.0000      -1.044689       -28.4274
  32   2.0000      -1.036998       -28.2182
  33   2.0000      -1.018341       -27.7105
  34   2.0000      -0.996591       -27.1186
  35   2.0000      -0.985122       -26.8065
  36   2.0000      -0.924091       -25.1458
  37   2.0000      -0.883480       -24.0407
  38   2.0000      -0.847981       -23.0747
  39   2.0000      -0.839963       -22.8566
  40   2.0000      -0.836774       -22.7698
  41   2.0000      -0.822163       -22.3722
  42   2.0000      -0.762821       -20.7574
  43   2.0000      -0.734908       -19.9979
  44   2.0000      -0.723954       -19.6998
  45   2.0000      -0.698402       -19.0045
  46   2.0000      -0.688845       -18.7444
  47   2.0000      -0.678707       -18.4686
  48   2.0000      -0.674025       -18.3411
  49   2.0000      -0.656398       -17.8615
  50   2.0000      -0.647518       -17.6199
  51   2.0000      -0.643170       -17.5015
  52   2.0000      -0.633243       -17.2314
  53   2.0000      -0.615220       -16.7410
  54   2.0000      -0.609945       -16.5975
  55   2.0000      -0.602327       -16.3901
  56   2.0000      -0.600024       -16.3275
  57   2.0000      -0.580013       -15.7830
  58   2.0000      -0.571680       -15.5562
  59   2.0000      -0.565761       -15.3951
  60   2.0000      -0.558999       -15.2111
  61   2.0000      -0.540314       -14.7027
  62   2.0000      -0.534446       -14.5430
  63   2.0000      -0.527712       -14.3598
  64   2.0000      -0.523281       -14.2392
  65   2.0000      -0.514872       -14.0104
  66   2.0000      -0.503628       -13.7044
  67   2.0000      -0.497497       -13.5376
  68   2.0000      -0.487821       -13.2743
  69   2.0000      -0.465060       -12.6549
  70   2.0000      -0.457366       -12.4456
  71   2.0000      -0.445672       -12.1273
  72   2.0000      -0.355098        -9.6627
  73   2.0000      -0.352419        -9.5898
  74   2.0000      -0.329382        -8.9629
  75   2.0000      -0.324674        -8.8348
  76   2.0000      -0.317101        -8.6288
  77   0.0000       0.072395         1.9700
  78   0.0000       0.103147         2.8068
  79   0.0000       0.123751         3.3674
  80   0.0000       0.130014         3.5379
  81   0.0000       0.134973         3.6728

MULLIKEN ATOMIC CHARGES
-----------------------
   0 C :   -0.262780
   1 C :    0.006599
   2 O :   -0.374045
   3 C :    0.490165
   4 O :   -0.420837
   5 C :   -0.263933
   6 C :    0.160917
   7 C :   -0.269934
   8 N :   -0.123516
   9 C :    0.212788
  10 S :   -0.439271
  11 N :   -0.206015
  12 C :    0.068040
  13 C :    0.028658
  14 C :   -0.173120
  15 C :   -0.133560
  16 C :   -0.278010
  17 C :    0.309919
  18 O :   -0.355651
  19 C :   -0.250698
  20 H :    0.088691
  21 H :    0.088730
  22 H :    0.101384
  23 H :    0.128090
  24 H :    0.112600
  25 H :    0.132415
  26 H :    0.130510
  27 H :    0.095265
  28 H :    0.197760
  29 H :    0.194963
  30 H :    0.149192
  31 H :    0.151513
  32 H :    0.162460
  33 H :    0.132480
  34 H :    0.241230
  35 H :    0.166999
Sum of atomic charges:   -0.0000000

LOEWDIN ATOMIC CHARGES
----------------------
   0 C :    0.107502
   1 C :   -0.016953
   2 O :    0.300937
   3 C :   -0.415636
   4 O :    0.106227
   5 C :   -0.097208
   6 C :   -0.058875
   7 C :    0.131603
   8 N :    0.406765
   9 C :   -0.456157
  10 S :   -0.034784
  11 N :    0.396199
  12 C :   -0.052349
  13 C :   -0.038214
  14 C :    0.014623
  15 C :    0.039587
  16 C :   -0.002659
  17 C :   -0.190074
  18 O :    0.396286
  19 C :    0.030855
  20 H :   -0.025587
  21 H :   -0.031688
  22 H :   -0.025086
  23 H :   -0.028252
  24 H :   -0.030900
  25 H :   -0.004560
  26 H :   -0.003872
  27 H :   -0.023248
  28 H :   -0.057413
  29 H :   -0.064732
  30 H :   -0.009771
  31 H :   -0.030270
  32 H :   -0.020618
  33 H :   -0.034988
  34 H :   -0.153251
  35 H :   -0.023438

  Mayer bond orders larger than 0.100000
B(  0-C ,  1-C ) :   0.9772 B(  0-C , 20-H ) :   0.9766 B(  0-C , 21-H ) :   0.9792
B(  0-C , 22-H ) :   0.9783 B(  1-C ,  2-O ) :   0.8726 B(  1-C , 23-H ) :   0.9769
B(  1-C , 24-H ) :   0.9668 B(  2-O ,  3-C ) :   1.1309 B(  3-C ,  4-O ) :   2.0005
B(  3-C ,  5-C ) :   1.0650 B(  5-C ,  6-C ) :   1.6505 B(  5-C , 12-C ) :   0.9716
B(  6-C ,  7-C ) :   0.9661 B(  6-C ,  8-N ) :   1.1611 B(  7-C , 25-H ) :   0.9593
B(  7-C , 26-H ) :   0.9610 B(  7-C , 27-H ) :   0.9904 B(  8-N ,  9-C ) :   1.1831
B(  8-N , 28-H ) :   0.9478 B(  9-C , 10-S ) :   1.6073 B(  9-C , 11-N ) :   1.3060
B( 11-N , 12-C ) :   0.9810 B( 11-N , 29-H ) :   0.9519 B( 12-C , 13-C ) :   0.9366
B( 12-C , 30-H ) :   1.0017 B( 13-C , 14-C ) :   1.3590 B( 13-C , 19-C ) :   1.3824
B( 14-C , 15-C ) :   1.3902 B( 14-C , 31-H ) :   0.9731 B( 15-C , 16-C ) :   1.3617
B( 15-C , 32-H ) :   0.9703 B( 16-C , 17-C ) :   1.3302 B( 16-C , 33-H ) :   0.9845
B( 17-C , 18-O ) :   1.1131 B( 17-C , 19-C ) :   1.3723 B( 18-O , 34-H ) :   0.9793
B( 19-C , 35-H ) :   0.9575

MP2 TOTAL ENERGY:    -1274.341258166 Eh
FINAL SINGLE POINT ENERGY     -1274.341258165767

DIPOLE MOMENT
-------------
                                X             Y             Z
Electronic contribution:      9.35103      11.14349       6.82601
Nuclear contribution   :    -10.45808     -12.67484      -6.92655
                        -----------------------------------------
Total Dipole Moment    :     -1.10705      -1.53135      -0.10054
                        -----------------------------------------
Magnitude (a.u.)       :      1.89227
Magnitude (Debye)      :      4.80977

Rotational constants in cm-1:     0.012463     0.008468     0.006301
Rotational constants in MHz :   373.640270   253.873377   188.909865

                             ****ORCA TERMINATED NORMALLY****
TOTAL RUN TIME: 0 days 1 hours 47 minutes 24 seconds 912 msec
