                         Program Version 4.2.0 -  RELEASE  -
|  1> ! ri-mp2 cc-pvtz cc-pvtz/c TightSCF  NoKeepInts
|  2>
|  3> %scf
|  4>   MaxCore 4096
|  5> end
|  6> *xyz  0  1
|  7>     C       14.5246706   14.4994049   15.9425230
|  8>     C       15.6920867   14.8709469   16.8712505
|  9>     O       16.7106245   15.4806613   16.0619417
| 10>     C       17.9439918   15.5971995   16.6263160
| 11>     O       18.5874853   14.5993844   16.9016538
| 12>     C       18.0648496   16.8491830   17.4400716
| 13>     C       17.5516081   18.0435334   17.0546350
| 14>     C       16.8229533   18.3522823   15.7636350
| 15>     N       17.7393229   19.1722885   17.8577073
| 16>     C       18.5303456   19.2117579   18.9763344
| 17>     S       18.7866502   20.6157284   19.8117941
| 18>     N       19.0972846   18.0248698   19.3697370
| 19>     C       18.8047423   16.7076352   18.7723429
| 20>     C       17.9966364   15.8451890   19.7383007
| 21>     C       18.4363745   14.5531415   20.0797500
| 22>     C       17.6835833   13.7465737   20.9495049
| 23>     C       16.4784158   14.2345554   21.4824296
| 24>     C       16.0345063   15.5191949   21.1416277
| 25>     O       14.8651175   15.9892459   21.6438054
| 26>     C       16.7855990   16.3194608   20.2752254
| 27>     H       14.8589051   13.8014687   15.1645408
| 28>     H       14.1172465   15.3934544   15.4547694
| 29>     H       13.7188628   14.0193524   16.5109707
| 30>     H       15.3566297   15.5611904   17.6567637
| 31>     H       16.0762113   13.9589861   17.3499180
| 32>     H       17.2854448   17.8310038   14.9159767
| 33>     H       16.8325811   19.4225953   15.5238427
| 34>     H       15.7759498   18.0299593   15.8225493
| 35>     H       17.3334491   20.0533126   17.5846213
| 36>     H       19.6529360   18.0775532   20.2139603
| 37>     H       19.7634918   16.2061612   18.5753261
| 38>     H       19.3576030   14.1650737   19.6514385
| 39>     H       18.0325869   12.7464075   21.2006581
| 40>     H       15.8927594   13.6134273   22.1520993
| 41>     H       14.5310808   15.3282169   22.2690424
| 42>     H       16.4244134   17.3116005   20.0269368
| 43> *
| 44>
| 45>                          ****END OF INPUT****

CARTESIAN COORDINATES (ANGSTROEM)
---------------------------------
  C     14.524671   14.499405   15.942523
  C     15.692087   14.870947   16.871250
  O     16.710625   15.480661   16.061942
  C     17.943992   15.597199   16.626316
  O     18.587485   14.599384   16.901654
  C     18.064850   16.849183   17.440072
  C     17.551608   18.043533   17.054635
  C     16.822953   18.352282   15.763635
  N     17.739323   19.172288   17.857707
  C     18.530346   19.211758   18.976334
  S     18.786650   20.615728   19.811794
  N     19.097285   18.024870   19.369737
  C     18.804742   16.707635   18.772343
  C     17.996636   15.845189   19.738301
  C     18.436374   14.553141   20.079750
  C     17.683583   13.746574   20.949505
  C     16.478416   14.234555   21.482430
  C     16.034506   15.519195   21.141628
  O     14.865118   15.989246   21.643805
  C     16.785599   16.319461   20.275225
  H     14.858905   13.801469   15.164541
  H     14.117246   15.393454   15.454769
  H     13.718863   14.019352   16.510971
  H     15.356630   15.561190   17.656764
  H     16.076211   13.958986   17.349918
  H     17.285445   17.831004   14.915977
  H     16.832581   19.422595   15.523843
  H     15.775950   18.029959   15.822549
  H     17.333449   20.053313   17.584621
  H     19.652936   18.077553   20.213960
  H     19.763492   16.206161   18.575326
  H     19.357603   14.165074   19.651439
  H     18.032587   12.746408   21.200658
  H     15.892759   13.613427   22.152099
  H     14.531081   15.328217   22.269042
  H     16.424413   17.311601   20.026937

 Total Charge           Charge          ....    0
 Multiplicity           Mult            ....    1
 Number of Electrons    NEL             ....  154
 Basis Dimension        Dim             ....  828

ORBITAL ENERGIES
----------------

  NO   OCC          E(Eh)            E(eV)
   0   2.0000     -91.889702     -2500.4459
   1   2.0000     -20.597084      -560.4751
   2   2.0000     -20.582358      -560.0744
   3   2.0000     -20.557159      -559.3887
   4   2.0000     -15.629402      -425.2977
   5   2.0000     -15.609156      -424.7467
   6   2.0000     -11.393572      -310.0349
   7   2.0000     -11.385250      -309.8084
   8   2.0000     -11.334043      -308.4150
   9   2.0000     -11.313139      -307.8462
  10   2.0000     -11.309428      -307.7452
  11   2.0000     -11.298341      -307.4435
  12   2.0000     -11.261801      -306.4492
  13   2.0000     -11.259800      -306.3947
  14   2.0000     -11.258593      -306.3619
  15   2.0000     -11.253192      -306.2149
  16   2.0000     -11.242886      -305.9345
  17   2.0000     -11.238708      -305.8208
  18   2.0000     -11.235879      -305.7438
  19   2.0000     -11.231040      -305.6121
  20   2.0000      -8.894773      -242.0391
  21   2.0000      -6.576350      -178.9516
  22   2.0000      -6.574341      -178.8969
  23   2.0000      -6.573755      -178.8810
  24   2.0000      -1.453484       -39.5513
  25   2.0000      -1.416876       -38.5551
  26   2.0000      -1.357444       -36.9379
  27   2.0000      -1.340431       -36.4750
  28   2.0000      -1.238664       -33.7058
  29   2.0000      -1.157291       -31.4915
  30   2.0000      -1.122153       -30.5353
  31   2.0000      -1.045570       -28.4514
  32   2.0000      -1.034956       -28.1626
  33   2.0000      -1.014796       -27.6140
  34   2.0000      -1.000352       -27.2209
  35   2.0000      -0.985928       -26.8285
  36   2.0000      -0.924280       -25.1509
  37   2.0000      -0.878817       -23.9138
  38   2.0000      -0.849887       -23.1266
  39   2.0000      -0.840223       -22.8636
  40   2.0000      -0.833328       -22.6760
  41   2.0000      -0.829641       -22.5757
  42   2.0000      -0.757191       -20.6042
  43   2.0000      -0.735967       -20.0267
  44   2.0000      -0.729326       -19.8460
  45   2.0000      -0.694984       -18.9115
  46   2.0000      -0.687246       -18.7009
  47   2.0000      -0.681620       -18.5478
  48   2.0000      -0.675038       -18.3687
  49   2.0000      -0.658086       -17.9074
  50   2.0000      -0.649406       -17.6712
  51   2.0000      -0.641826       -17.4650
  52   2.0000      -0.629862       -17.1394
  53   2.0000      -0.624407       -16.9910
  54   2.0000      -0.605612       -16.4795
  55   2.0000      -0.603997       -16.4356
  56   2.0000      -0.600582       -16.3427
  57   2.0000      -0.579590       -15.7714
  58   2.0000      -0.576608       -15.6903
  59   2.0000      -0.564472       -15.3601
  60   2.0000      -0.557883       -15.1808
  61   2.0000      -0.550075       -14.9683
  62   2.0000      -0.535085       -14.5604
  63   2.0000      -0.522646       -14.2219
  64   2.0000      -0.520017       -14.1504
  65   2.0000      -0.513256       -13.9664
  66   2.0000      -0.503581       -13.7031
  67   2.0000      -0.498296       -13.5593
  68   2.0000      -0.482489       -13.1292
  69   2.0000      -0.465419       -12.6647
  70   2.0000      -0.458997       -12.4899
  71   2.0000      -0.452998       -12.3267
  72   2.0000      -0.355428        -9.6717
  73   2.0000      -0.348805        -9.4915
  74   2.0000      -0.328991        -8.9523
  75   2.0000      -0.320367        -8.7176
  76   2.0000      -0.316737        -8.6189
  77   0.0000       0.069410         1.8888
  78   0.0000       0.103182         2.8077
  79   0.0000       0.117651         3.2015
  80   0.0000       0.131295         3.5727
  81   0.0000       0.134375         3.6565

MULLIKEN ATOMIC CHARGES
-----------------------
   0 C :   -0.257976
   1 C :    0.026393
   2 O :   -0.372487
   3 C :    0.474188
   4 O :   -0.391847
   5 C :   -0.229402
   6 C :    0.146514
   7 C :   -0.281837
   8 N :   -0.124426
   9 C :    0.201314
  10 S :   -0.438356
  11 N :   -0.201459
  12 C :    0.052977
  13 C :    0.056103
  14 C :   -0.164725
  15 C :   -0.133458
  16 C :   -0.279583
  17 C :    0.321209
  18 O :   -0.359906
  19 C :   -0.306493
  20 H :    0.104169
  21 H :    0.090211
  22 H :    0.090560
  23 H :    0.094897
  24 H :    0.114909
  25 H :    0.125876
  26 H :    0.107283
  27 H :    0.122885
  28 H :    0.197260
  29 H :    0.194282
  30 H :    0.156085
  31 H :    0.158315
  32 H :    0.161658
  33 H :    0.131052
  34 H :    0.241300
  35 H :    0.172512
Sum of atomic charges:   -0.0000000

LOEWDIN ATOMIC CHARGES
----------------------
   0 C :    0.110478
   1 C :   -0.019889
   2 O :    0.289262
   3 C :   -0.419386
   4 O :    0.134063
   5 C :   -0.095136
   6 C :   -0.076004
   7 C :    0.126587
   8 N :    0.404173
   9 C :   -0.457523
  10 S :   -0.035383
  11 N :    0.396984
  12 C :   -0.045560
  13 C :   -0.040935
  14 C :    0.021958
  15 C :    0.042221
  16 C :   -0.001905
  17 C :   -0.194885
  18 O :    0.393385
  19 C :    0.028314
  20 H :   -0.023264
  21 H :   -0.030353
  22 H :   -0.024554
  23 H :   -0.036019
  24 H :   -0.024562
  25 H :   -0.007168
  26 H :   -0.018909
  27 H :   -0.010706
  28 H :   -0.058591
  29 H :   -0.064043
  30 H :   -0.004284
  31 H :   -0.024180
  32 H :   -0.020011
  33 H :   -0.035414
  34 H :   -0.153611
  35 H :   -0.025147

  Mayer bond orders larger than 0.100000
B(  0-C ,  1-C ) :   0.9792 B(  0-C , 20-H ) :   0.9786 B(  0-C , 21-H ) :   0.9793
B(  0-C , 22-H ) :   0.9763 B(  1-C ,  2-O ) :   0.8862 B(  1-C , 23-H ) :   0.9677
B(  1-C , 24-H ) :   0.9741 B(  2-O ,  3-C ) :   1.0992 B(  3-C ,  4-O ) :   2.0475
B(  3-C ,  5-C ) :   1.0045 B(  5-C ,  6-C ) :   1.6647 B(  5-C , 12-C ) :   0.9649
B(  6-C ,  7-C ) :   0.9525 B(  6-C ,  8-N ) :   1.1386 B(  7-C , 25-H ) :   0.9707
B(  7-C , 26-H ) :   0.9870 B(  7-C , 27-H ) :   0.9636 B(  8-N ,  9-C ) :   1.1836
B(  8-N , 28-H ) :   0.9497 B(  9-C , 10-S ) :   1.6127 B(  9-C , 11-N ) :   1.2989
B( 11-N , 12-C ) :   0.9935 B( 11-N , 29-H ) :   0.9519 B( 12-C , 13-C ) :   0.9451
B( 12-C , 30-H ) :   0.9987 B( 13-C , 14-C ) :   1.3798 B( 13-C , 19-C ) :   1.3516
B( 14-C , 15-C ) :   1.3941 B( 14-C , 31-H ) :   0.9629 B( 15-C , 16-C ) :   1.3645
B( 15-C , 32-H ) :   0.9705 B( 16-C , 17-C ) :   1.3312 B( 16-C , 33-H ) :   0.9847
B( 17-C , 18-O ) :   1.1094 B( 17-C , 19-C ) :   1.3679 B( 18-O , 34-H ) :   0.9798
B( 19-C , 35-H ) :   0.9588

MP2 TOTAL ENERGY:    -1274.323347880 Eh
FINAL SINGLE POINT ENERGY     -1274.323347879526

DIPOLE MOMENT
-------------
                                X             Y             Z
Electronic contribution:     11.29480       9.33363       7.74492
Nuclear contribution   :    -12.61487     -10.54238      -8.20131
                        -----------------------------------------
Total Dipole Moment    :     -1.32007      -1.20875      -0.45638
                        -----------------------------------------
Magnitude (a.u.)       :      1.84714
Magnitude (Debye)      :      4.69506

Rotational constants in cm-1:     0.011463     0.009190     0.006619
Rotational constants in MHz :   343.642204   275.497650   198.418825

                             ****ORCA TERMINATED NORMALLY****
TOTAL RUN TIME: 0 days 1 hours 47 minutes 50 seconds 245 msec
