                         Program Version 5.0.0 -  RELEASE  -
|  1> ! ri-mp2 cc-pvtz cc-pvtz/c TightSCF NoKeepInts
|  2>
|  3> %scf
|  4>   MaxCore 4096
|  5> end
|  6> *xyz  0  1
|  7>     C       15.8367400   13.5143361   15.1062033
|  8>     C       15.2902370   14.6526220   15.9890828
|  9>     O       16.3913556   15.3945539   16.5470389
| 10>     C       16.0739009   16.4438721   17.3586751
| 11>     O       14.9434951   16.8946742   17.4372452
| 12>     C       17.2771836   17.2349696   17.7299413
| 13>     C       17.4260380   18.5056577   17.2891607
| 14>     C       16.5399043   19.2077444   16.2809049
| 15>     N       18.4937786   19.2811582   17.7523245
| 16>     C       19.3312736   18.9086783   18.7732890
| 17>     S       20.4171882   19.9563275   19.4491005
| 18>     N       19.1833442   17.6278051   19.2503094
| 19>     C       18.3013114   16.5934962   18.6725414
| 20>     C       17.7042073   15.7376040   19.7924878
| 21>     C       18.2660366   14.4803561   20.0880541
| 22>     C       17.7833840   13.7110239   21.1596415
| 23>     C       16.7251088   14.1951648   21.9438759
| 24>     C       16.1604442   15.4450490   21.6559243
| 25>     O       15.1415593   15.9156803   22.4224122
| 26>     C       16.6537811   16.2181428   20.5973203
| 27>     H       16.7507831   13.8234383   14.5827979
| 28>     H       15.0915896   13.2441366   14.3485898
| 29>     H       16.0562962   12.6217592   15.7040816
| 30>     H       14.6552089   15.3123544   15.3902143
| 31>     H       14.6796097   14.2205289   16.7919097
| 32>     H       16.2065456   18.5130131   15.5019284
| 33>     H       17.0514591   20.0336310   15.7678745
| 34>     H       15.6410092   19.6075612   16.7646128
| 35>     H       18.5992253   20.2334405   17.4320897
| 36>     H       19.7351599   17.4131614   20.0738940
| 37>     H       18.9342397   15.9421541   18.0537246
| 38>     H       19.0931836   14.1022461   19.4939896
| 39>     H       18.2382791   12.7476243   21.3914866
| 40>     H       16.3519305   13.6068371   22.7777207
| 41>     H       14.9052429   15.2168202   23.0520246
| 42>     H       16.2169659   17.1943773   20.4115281
| 43> *
| 44>
| 45>                          ****END OF INPUT****

CARTESIAN COORDINATES (ANGSTROEM)
---------------------------------
  C     15.836740   13.514336   15.106203
  C     15.290237   14.652622   15.989083
  O     16.391356   15.394554   16.547039
  C     16.073901   16.443872   17.358675
  O     14.943495   16.894674   17.437245
  C     17.277184   17.234970   17.729941
  C     17.426038   18.505658   17.289161
  C     16.539904   19.207744   16.280905
  N     18.493779   19.281158   17.752325
  C     19.331274   18.908678   18.773289
  S     20.417188   19.956328   19.449101
  N     19.183344   17.627805   19.250309
  C     18.301311   16.593496   18.672541
  C     17.704207   15.737604   19.792488
  C     18.266037   14.480356   20.088054
  C     17.783384   13.711024   21.159641
  C     16.725109   14.195165   21.943876
  C     16.160444   15.445049   21.655924
  O     15.141559   15.915680   22.422412
  C     16.653781   16.218143   20.597320
  H     16.750783   13.823438   14.582798
  H     15.091590   13.244137   14.348590
  H     16.056296   12.621759   15.704082
  H     14.655209   15.312354   15.390214
  H     14.679610   14.220529   16.791910
  H     16.206546   18.513013   15.501928
  H     17.051459   20.033631   15.767874
  H     15.641009   19.607561   16.764613
  H     18.599225   20.233441   17.432090
  H     19.735160   17.413161   20.073894
  H     18.934240   15.942154   18.053725
  H     19.093184   14.102246   19.493990
  H     18.238279   12.747624   21.391487
  H     16.351931   13.606837   22.777721
  H     14.905243   15.216820   23.052025
  H     16.216966   17.194377   20.411528

 Total Charge           Charge          ....    0
 Multiplicity           Mult            ....    1
 Number of Electrons    NEL             ....  154
 Basis Dimension        Dim             ....  828

ORBITAL ENERGIES
----------------

  NO   OCC          E(Eh)            E(eV)
   0   2.0000     -91.884596     -2500.3070
   1   2.0000     -20.607629      -560.7621
   2   2.0000     -20.597323      -560.4817
   3   2.0000     -20.550866      -559.2175
   4   2.0000     -15.621230      -425.0753
   5   2.0000     -15.604484      -424.6196
   6   2.0000     -11.393036      -310.0203
   7   2.0000     -11.380402      -309.6765
   8   2.0000     -11.322937      -308.1128
   9   2.0000     -11.316530      -307.9384
  10   2.0000     -11.310910      -307.7855
  11   2.0000     -11.295524      -307.3668
  12   2.0000     -11.266090      -306.5659
  13   2.0000     -11.258281      -306.3534
  14   2.0000     -11.253541      -306.2244
  15   2.0000     -11.253145      -306.2137
  16   2.0000     -11.247578      -306.0621
  17   2.0000     -11.244204      -305.9704
  18   2.0000     -11.242797      -305.9321
  19   2.0000     -11.232113      -305.6413
  20   2.0000      -8.889734      -241.9020
  21   2.0000      -6.571326      -178.8149
  22   2.0000      -6.569305      -178.7599
  23   2.0000      -6.568732      -178.7443
  24   2.0000      -1.457354       -39.6566
  25   2.0000      -1.415940       -38.5297
  26   2.0000      -1.358891       -36.9773
  27   2.0000      -1.332344       -36.2549
  28   2.0000      -1.232302       -33.5326
  29   2.0000      -1.160139       -31.5690
  30   2.0000      -1.119893       -30.4739
  31   2.0000      -1.044963       -28.4349
  32   2.0000      -1.040608       -28.3164
  33   2.0000      -1.017629       -27.6911
  34   2.0000      -0.996579       -27.1183
  35   2.0000      -0.982132       -26.7252
  36   2.0000      -0.921375       -25.0719
  37   2.0000      -0.887982       -24.1632
  38   2.0000      -0.844345       -22.9758
  39   2.0000      -0.836762       -22.7694
  40   2.0000      -0.834836       -22.7170
  41   2.0000      -0.817828       -22.2542
  42   2.0000      -0.763200       -20.7677
  43   2.0000      -0.732327       -19.9276
  44   2.0000      -0.723739       -19.6939
  45   2.0000      -0.697339       -18.9756
  46   2.0000      -0.686369       -18.6770
  47   2.0000      -0.681095       -18.5335
  48   2.0000      -0.677399       -18.4330
  49   2.0000      -0.665693       -18.1144
  50   2.0000      -0.651113       -17.7177
  51   2.0000      -0.646704       -17.5977
  52   2.0000      -0.631173       -17.1751
  53   2.0000      -0.608597       -16.5608
  54   2.0000      -0.601087       -16.3564
  55   2.0000      -0.597746       -16.2655
  56   2.0000      -0.588087       -16.0027
  57   2.0000      -0.577671       -15.7192
  58   2.0000      -0.573440       -15.6041
  59   2.0000      -0.569731       -15.5032
  60   2.0000      -0.564767       -15.3681
  61   2.0000      -0.552674       -15.0390
  62   2.0000      -0.539902       -14.6915
  63   2.0000      -0.526628       -14.3303
  64   2.0000      -0.514933       -14.0120
  65   2.0000      -0.510002       -13.8779
  66   2.0000      -0.506401       -13.7799
  67   2.0000      -0.498017       -13.5517
  68   2.0000      -0.490195       -13.3389
  69   2.0000      -0.461146       -12.5484
  70   2.0000      -0.460476       -12.5302
  71   2.0000      -0.453296       -12.3348
  72   2.0000      -0.353967        -9.6319
  73   2.0000      -0.348295        -9.4776
  74   2.0000      -0.326783        -8.8922
  75   2.0000      -0.322858        -8.7854
  76   2.0000      -0.312881        -8.5139
  77   0.0000       0.092551         2.5184
  78   0.0000       0.101860         2.7718
  79   0.0000       0.121689         3.3113
  80   0.0000       0.130894         3.5618
  81   0.0000       0.133795         3.6407

MULLIKEN ATOMIC CHARGES
-----------------------
   0 C :   -0.268337
   1 C :    0.049768
   2 O :   -0.330492
   3 C :    0.383540
   4 O :   -0.409831
   5 C :   -0.131896
   6 C :    0.140408
   7 C :   -0.286306
   8 N :   -0.138559
   9 C :    0.224825
  10 S :   -0.449396
  11 N :   -0.221112
  12 C :    0.106978
  13 C :   -0.052003
  14 C :   -0.187613
  15 C :   -0.130029
  16 C :   -0.266615
  17 C :    0.308253
  18 O :   -0.353477
  19 C :   -0.204954
  20 H :    0.098388
  21 H :    0.092364
  22 H :    0.096567
  23 H :    0.089557
  24 H :    0.088129
  25 H :    0.117196
  26 H :    0.098624
  27 H :    0.139285
  28 H :    0.195149
  29 H :    0.203067
  30 H :    0.141288
  31 H :    0.153492
  32 H :    0.160220
  33 H :    0.131252
  34 H :    0.240498
  35 H :    0.171770
Sum of atomic charges:    0.0000000

LOEWDIN ATOMIC CHARGES
----------------------
   0 C :    0.109464
   1 C :   -0.016003
   2 O :    0.301680
   3 C :   -0.418604
   4 O :    0.116417
   5 C :   -0.085673
   6 C :   -0.082742
   7 C :    0.129110
   8 N :    0.399774
   9 C :   -0.450725
  10 S :   -0.042235
  11 N :    0.389479
  12 C :   -0.048654
  13 C :   -0.042743
  14 C :    0.012474
  15 C :    0.040617
  16 C :    0.003731
  17 C :   -0.185381
  18 O :    0.394249
  19 C :    0.040962
  20 H :   -0.025615
  21 H :   -0.024285
  22 H :   -0.028144
  23 H :   -0.033121
  24 H :   -0.028407
  25 H :   -0.009055
  26 H :   -0.019531
  27 H :   -0.006806
  28 H :   -0.057205
  29 H :   -0.065259
  30 H :   -0.016049
  31 H :   -0.028638
  32 H :   -0.019168
  33 H :   -0.032685
  34 H :   -0.152789
  35 H :   -0.018441

  Mayer bond orders larger than 0.100000
B(  0-C ,  1-C ) :   0.9550 B(  0-C , 20-H ) :   0.9743 B(  0-C , 21-H ) :   0.9817
B(  0-C , 22-H ) :   0.9847 B(  1-C ,  2-O ) :   0.9129 B(  1-C , 23-H ) :   0.9807
B(  1-C , 24-H ) :   0.9804 B(  2-O ,  3-C ) :   1.2006 B(  3-C ,  4-O ) :   2.0031
B(  3-C ,  5-C ) :   0.9440 B(  5-C ,  6-C ) :   1.7204 B(  5-C , 12-C ) :   0.9595
B(  6-C ,  7-C ) :   0.9495 B(  6-C ,  8-N ) :   1.1352 B(  7-C , 25-H ) :   0.9745
B(  7-C , 26-H ) :   0.9856 B(  7-C , 27-H ) :   0.9626 B(  8-N ,  9-C ) :   1.1987
B(  8-N , 28-H ) :   0.9512 B(  9-C , 10-S ) :   1.5950 B(  9-C , 11-N ) :   1.3009
B( 11-N , 12-C ) :   0.9692 B( 11-N , 29-H ) :   0.9440 B( 12-C , 13-C ) :   0.9745
B( 12-C , 30-H ) :   0.9934 B( 13-C , 14-C ) :   1.3664 B( 13-C , 19-C ) :   1.3692
B( 14-C , 15-C ) :   1.3939 B( 14-C , 31-H ) :   0.9724 B( 15-C , 16-C ) :   1.3662
B( 15-C , 32-H ) :   0.9707 B( 16-C , 17-C ) :   1.3293 B( 16-C , 33-H ) :   0.9850
B( 17-C , 18-O ) :   1.1044 B( 17-C , 19-C ) :   1.3622 B( 18-O , 34-H ) :   0.9795
B( 19-C , 35-H ) :   0.9563

MP2 TOTAL ENERGY:    -1274.335306174 Eh
FINAL SINGLE POINT ENERGY     -1274.335306173688

DIPOLE MOMENT
-------------
                                X             Y             Z
Electronic contribution:      7.96706      10.76158      11.22490
Nuclear contribution   :     -8.91543     -12.75875     -11.95027
                        -----------------------------------------
Total Dipole Moment    :     -0.94837      -1.99717      -0.72538
                        -----------------------------------------
Magnitude (a.u.)       :      2.32686
Magnitude (Debye)      :      5.91440

Rotational constants in cm-1:     0.010295     0.008547     0.005739
Rotational constants in MHz :   308.622625   256.237112   172.043456

                             ****ORCA TERMINATED NORMALLY****
TOTAL RUN TIME: 0 days 1 hours 47 minutes 46 seconds 52 msec
