                         Program Version 5.0.0 -  RELEASE  -
|  1> ! ri-mp2 cc-pvtz cc-pvtz/c TightSCF NoKeepInts
|  2>
|  3> %scf
|  4>   MaxCore 4096
|  5> end
|  6> *xyz  0  1
|  7>     C       14.9554984   14.4457620   16.0087139
|  8>     C       16.1413688   14.4179866   16.9924730
|  9>     O       17.3027069   15.0004725   16.3635462
| 10>     C       17.3377600   16.3474096   16.1441597
| 11>     O       16.8718067   16.8111169   15.1193519
| 12>     C       17.6828590   17.1673071   17.3595178
| 13>     C       17.3578556   18.4819684   17.4597336
| 14>     C       16.5076650   19.2941788   16.5066656
| 15>     N       17.8705445   19.2500115   18.5100709
| 16>     C       18.8856475   18.8479019   19.3379047
| 17>     S       19.5887630   19.8748041   20.4269699
| 18>     N       19.2982054   17.5457584   19.2056812
| 19>     C       18.5780685   16.5179736   18.4315634
| 20>     C       17.8259927   15.6128630   19.4008998
| 21>     C       18.2073141   14.2664260   19.5550550
| 22>     C       17.5167892   13.4250199   20.4433759
| 23>     C       16.4408743   13.9349552   21.1897549
| 24>     C       16.0660710   15.2779323   21.0485463
| 25>     O       15.0278091   15.7736578   21.7670701
| 26>     C       16.7529789   16.1124170   20.1614722
| 27>     H       14.6289262   15.4740864   15.8100591
| 28>     H       14.1021170   13.8942080   16.4211109
| 29>     H       15.2347034   13.9824880   15.0539788
| 30>     H       15.8589965   14.9583603   17.9022897
| 31>     H       16.3600769   13.3774299   17.2646975
| 32>     H       15.5671105   18.7739819   16.2854751
| 33>     H       17.0319094   19.4396697   15.5532376
| 34>     H       16.2492625   20.2836901   16.9015101
| 35>     H       17.5919714   20.2138944   18.6036763
| 36>     H       20.0343256   17.2705141   19.8432723
| 37>     H       19.3295668   15.9099735   17.9079746
| 38>     H       19.0380761   13.8678450   18.9781433
| 39>     H       17.8179086   12.3843700   20.5537869
| 40>     H       15.9057016   13.2890675   21.8784236
| 41>     H       14.7288851   15.0761187   22.3700469
| 42>     H       16.4508839   17.1503797   20.0737913
| 43> *
| 44>
| 45>                          ****END OF INPUT****

CARTESIAN COORDINATES (ANGSTROEM)
---------------------------------
  C     14.955498   14.445762   16.008714
  C     16.141369   14.417987   16.992473
  O     17.302707   15.000472   16.363546
  C     17.337760   16.347410   16.144160
  O     16.871807   16.811117   15.119352
  C     17.682859   17.167307   17.359518
  C     17.357856   18.481968   17.459734
  C     16.507665   19.294179   16.506666
  N     17.870544   19.250011   18.510071
  C     18.885648   18.847902   19.337905
  S     19.588763   19.874804   20.426970
  N     19.298205   17.545758   19.205681
  C     18.578069   16.517974   18.431563
  C     17.825993   15.612863   19.400900
  C     18.207314   14.266426   19.555055
  C     17.516789   13.425020   20.443376
  C     16.440874   13.934955   21.189755
  C     16.066071   15.277932   21.048546
  O     15.027809   15.773658   21.767070
  C     16.752979   16.112417   20.161472
  H     14.628926   15.474086   15.810059
  H     14.102117   13.894208   16.421111
  H     15.234703   13.982488   15.053979
  H     15.858996   14.958360   17.902290
  H     16.360077   13.377430   17.264698
  H     15.567111   18.773982   16.285475
  H     17.031909   19.439670   15.553238
  H     16.249263   20.283690   16.901510
  H     17.591971   20.213894   18.603676
  H     20.034326   17.270514   19.843272
  H     19.329567   15.909973   17.907975
  H     19.038076   13.867845   18.978143
  H     17.817909   12.384370   20.553787
  H     15.905702   13.289067   21.878424
  H     14.728885   15.076119   22.370047
  H     16.450884   17.150380   20.073791

 Total Charge           Charge          ....    0
 Multiplicity           Mult            ....    1
 Number of Electrons    NEL             ....  154
 Basis Dimension        Dim             ....  828

ORBITAL ENERGIES
----------------

  NO   OCC          E(Eh)            E(eV)
   0   2.0000     -91.891807     -2500.5032
   1   2.0000     -20.602370      -560.6190
   2   2.0000     -20.581435      -560.0493
   3   2.0000     -20.549780      -559.1879
   4   2.0000     -15.632017      -425.3688
   5   2.0000     -15.610654      -424.7875
   6   2.0000     -11.393436      -310.0311
   7   2.0000     -11.386345      -309.8382
   8   2.0000     -11.338072      -308.5246
   9   2.0000     -11.320388      -308.0434
  10   2.0000     -11.313914      -307.8672
  11   2.0000     -11.296312      -307.3883
  12   2.0000     -11.264913      -306.5339
  13   2.0000     -11.261533      -306.4419
  14   2.0000     -11.260043      -306.4014
  15   2.0000     -11.254740      -306.2571
  16   2.0000     -11.249503      -306.1145
  17   2.0000     -11.243798      -305.9593
  18   2.0000     -11.243651      -305.9553
  19   2.0000     -11.219465      -305.2972
  20   2.0000      -8.896819      -242.0948
  21   2.0000      -6.578381      -179.0068
  22   2.0000      -6.576390      -178.9527
  23   2.0000      -6.575791      -178.9364
  24   2.0000      -1.445900       -39.3449
  25   2.0000      -1.422080       -38.6968
  26   2.0000      -1.353498       -36.8306
  27   2.0000      -1.343249       -36.5517
  28   2.0000      -1.241622       -33.7863
  29   2.0000      -1.162951       -31.6455
  30   2.0000      -1.122148       -30.5352
  31   2.0000      -1.047262       -28.4974
  32   2.0000      -1.029874       -28.0243
  33   2.0000      -1.021386       -27.7933
  34   2.0000      -0.999395       -27.1949
  35   2.0000      -0.987024       -26.8583
  36   2.0000      -0.926590       -25.2138
  37   2.0000      -0.884712       -24.0742
  38   2.0000      -0.850643       -23.1472
  39   2.0000      -0.844917       -22.9914
  40   2.0000      -0.839860       -22.8538
  41   2.0000      -0.829421       -22.5697
  42   2.0000      -0.753004       -20.4903
  43   2.0000      -0.735936       -20.0258
  44   2.0000      -0.717781       -19.5318
  45   2.0000      -0.701420       -19.0866
  46   2.0000      -0.692345       -18.8397
  47   2.0000      -0.680521       -18.5179
  48   2.0000      -0.668037       -18.1782
  49   2.0000      -0.666407       -18.1339
  50   2.0000      -0.651634       -17.7319
  51   2.0000      -0.649316       -17.6688
  52   2.0000      -0.639212       -17.3939
  53   2.0000      -0.612599       -16.6697
  54   2.0000      -0.608012       -16.5448
  55   2.0000      -0.602312       -16.3897
  56   2.0000      -0.598781       -16.2937
  57   2.0000      -0.582271       -15.8444
  58   2.0000      -0.574057       -15.6209
  59   2.0000      -0.569905       -15.5079
  60   2.0000      -0.559780       -15.2324
  61   2.0000      -0.544015       -14.8034
  62   2.0000      -0.537182       -14.6175
  63   2.0000      -0.529734       -14.4148
  64   2.0000      -0.521236       -14.1835
  65   2.0000      -0.517787       -14.0897
  66   2.0000      -0.505976       -13.7683
  67   2.0000      -0.497773       -13.5451
  68   2.0000      -0.478928       -13.0323
  69   2.0000      -0.465961       -12.6794
  70   2.0000      -0.455009       -12.3814
  71   2.0000      -0.443533       -12.0691
  72   2.0000      -0.359081        -9.7711
  73   2.0000      -0.354345        -9.6422
  74   2.0000      -0.331611        -9.0236
  75   2.0000      -0.327816        -8.9203
  76   2.0000      -0.318788        -8.6747
  77   0.0000       0.068711         1.8697
  78   0.0000       0.099610         2.7105
  79   0.0000       0.120908         3.2901
  80   0.0000       0.127409         3.4670
  81   0.0000       0.131690         3.5835

MULLIKEN ATOMIC CHARGES
-----------------------
   0 C :   -0.267396
   1 C :    0.024640
   2 O :   -0.378649
   3 C :    0.482894
   4 O :   -0.392557
   5 C :   -0.266904
   6 C :    0.153807
   7 C :   -0.271053
   8 N :   -0.126285
   9 C :    0.206430
  10 S :   -0.433280
  11 N :   -0.193011
  12 C :    0.039279
  13 C :    0.035852
  14 C :   -0.166012
  15 C :   -0.134177
  16 C :   -0.273541
  17 C :    0.307769
  18 O :   -0.355678
  19 C :   -0.259670
  20 H :    0.095902
  21 H :    0.092358
  22 H :    0.104882
  23 H :    0.105360
  24 H :    0.109454
  25 H :    0.125776
  26 H :    0.138256
  27 H :    0.094544
  28 H :    0.198666
  29 H :    0.191621
  30 H :    0.150355
  31 H :    0.149490
  32 H :    0.164919
  33 H :    0.134092
  34 H :    0.241790
  35 H :    0.170077
Sum of atomic charges:    0.0000000

LOEWDIN ATOMIC CHARGES
----------------------
   0 C :    0.106064
   1 C :   -0.021232
   2 O :    0.282802
   3 C :   -0.420752
   4 O :    0.127092
   5 C :   -0.099775
   6 C :   -0.060160
   7 C :    0.130570
   8 N :    0.406659
   9 C :   -0.457539
  10 S :   -0.030741
  11 N :    0.396464
  12 C :   -0.052395
  13 C :   -0.040391
  14 C :    0.016494
  15 C :    0.042562
  16 C :   -0.000617
  17 C :   -0.191187
  18 O :    0.396740
  19 C :    0.029978
  20 H :   -0.029968
  21 H :   -0.029164
  22 H :   -0.023484
  23 H :   -0.035145
  24 H :   -0.022790
  25 H :   -0.006598
  26 H :   -0.002619
  27 H :   -0.022883
  28 H :   -0.057349
  29 H :   -0.065062
  30 H :   -0.006107
  31 H :   -0.028645
  32 H :   -0.019639
  33 H :   -0.034135
  34 H :   -0.152484
  35 H :   -0.024564

  Mayer bond orders larger than 0.100000
B(  0-C ,  1-C ) :   0.9816 B(  0-C , 20-H ) :   0.9730 B(  0-C , 21-H ) :   0.9762
B(  0-C , 22-H ) :   0.9785 B(  1-C ,  2-O ) :   0.8794 B(  1-C , 23-H ) :   0.9634
B(  1-C , 24-H ) :   0.9804 B(  2-O ,  3-C ) :   1.1086 B(  3-C ,  4-O ) :   2.0422
B(  3-C ,  5-C ) :   1.0296 B(  5-C ,  6-C ) :   1.6625 B(  5-C , 12-C ) :   0.9675
B(  6-C ,  7-C ) :   0.9697 B(  6-C ,  8-N ) :   1.1495 B(  7-C , 25-H ) :   0.9666
B(  7-C , 26-H ) :   0.9554 B(  7-C , 27-H ) :   0.9876 B(  8-N ,  9-C ) :   1.1775
B(  8-N , 28-H ) :   0.9485 B(  9-C , 10-S ) :   1.6184 B(  9-C , 11-N ) :   1.2988
B( 11-N , 12-C ) :   0.9814 B( 11-N , 29-H ) :   0.9541 B( 12-C , 13-C ) :   0.9508
B( 12-C , 30-H ) :   1.0025 B( 13-C , 14-C ) :   1.3551 B( 13-C , 19-C ) :   1.3661
B( 14-C , 15-C ) :   1.3846 B( 14-C , 31-H ) :   0.9757 B( 15-C , 16-C ) :   1.3687
B( 15-C , 32-H ) :   0.9693 B( 16-C , 17-C ) :   1.3264 B( 16-C , 33-H ) :   0.9833
B( 17-C , 18-O ) :   1.1153 B( 17-C , 19-C ) :   1.3773 B( 18-O , 34-H ) :   0.9789
B( 19-C , 35-H ) :   0.9567

MP2 TOTAL ENERGY:    -1274.329062740 Eh
FINAL SINGLE POINT ENERGY     -1274.329062739560

DIPOLE MOMENT
-------------
                                X             Y             Z
Electronic contribution:     10.79998       8.73145       6.99647
Nuclear contribution   :    -11.93043     -10.26765      -6.64502
                        -----------------------------------------
Total Dipole Moment    :     -1.13045      -1.53621       0.35146
                        -----------------------------------------
Magnitude (a.u.)       :      1.93943
Magnitude (Debye)      :      4.92963

Rotational constants in cm-1:     0.011539     0.009556     0.006426
Rotational constants in MHz :   345.934862   286.475501   192.644414

                             ****ORCA TERMINATED NORMALLY****
TOTAL RUN TIME: 0 days 1 hours 53 minutes 13 seconds 252 msec
