                         Program Version 4.2.0 -  RELEASE  -
|  1> ! ri-mp2 cc-pvtz cc-pvtz/c TightSCF  NoKeepInts
|  2>
|  3> %scf
|  4>   MaxCore 4096
|  5> end
|  6> *xyz  0  1
|  7>     C       15.1354083   13.8718205   15.7000667
|  8>     C       15.8781127   14.3648685   16.9563075
|  9>     O       16.9821643   15.1954581   16.5510652
| 10>     C       16.7799088   16.5419064   16.4416498
| 11>     O       15.8280175   16.9903153   15.8272318
| 12>     C       17.5611663   17.3315061   17.4578963
| 13>     C       17.4448806   18.6794313   17.5746585
| 14>     C       16.5539258   19.5981138   16.7657514
| 15>     N       18.2334155   19.3744538   18.4965283
| 16>     C       19.2441604   18.8215511   19.2362954
| 17>     S       20.2085903   19.7346713   20.2221143
| 18>     N       19.4228812   17.4677208   19.1112389
| 19>     C       18.5270869   16.5589618   18.3736279
| 20>     C       17.7970825   15.6565605   19.3642752
| 21>     C       18.1865623   14.3127447   19.5187850
| 22>     C       17.5133204   13.4723993   20.4213320
| 23>     C       16.4450237   13.9807830   21.1796391
| 24>     C       16.0609725   15.3209920   21.0358090
| 25>     O       15.0313040   15.8154801   21.7676797
| 26>     C       16.7316545   16.1544948   20.1355734
| 27>     H       14.6815849   14.7099031   15.1566835
| 28>     H       14.3353633   13.1747217   15.9764259
| 29>     H       15.8242514   13.3534736   15.0218072
| 30>     H       15.1962274   14.9106859   17.6230744
| 31>     H       16.2624544   13.4939518   17.5023538
| 32>     H       15.4966862   19.3612997   16.9415090
| 33>     H       16.7422537   19.4729854   15.6918435
| 34>     H       16.7008651   20.6581106   17.0038040
| 35>     H       18.1189076   20.3703735   18.5974790
| 36>     H       20.1547783   17.0843423   19.6953445
| 37>     H       19.1563192   15.9273777   17.7305691
| 38>     H       19.0106015   13.9162777   18.9312857
| 39>     H       17.8212311   12.4339707   20.5328018
| 40>     H       15.9229618   13.3361585   21.8793323
| 41>     H       14.7336571   15.1136054   22.3659978
| 42>     H       16.4232182   17.1905292   20.0461629
| 43> *
| 44>
| 45>                          ****END OF INPUT****

CARTESIAN COORDINATES (ANGSTROEM)
---------------------------------
  C     15.135408   13.871821   15.700067
  C     15.878113   14.364868   16.956307
  O     16.982164   15.195458   16.551065
  C     16.779909   16.541906   16.441650
  O     15.828017   16.990315   15.827232
  C     17.561166   17.331506   17.457896
  C     17.444881   18.679431   17.574659
  C     16.553926   19.598114   16.765751
  N     18.233415   19.374454   18.496528
  C     19.244160   18.821551   19.236295
  S     20.208590   19.734671   20.222114
  N     19.422881   17.467721   19.111239
  C     18.527087   16.558962   18.373628
  C     17.797082   15.656560   19.364275
  C     18.186562   14.312745   19.518785
  C     17.513320   13.472399   20.421332
  C     16.445024   13.980783   21.179639
  C     16.060972   15.320992   21.035809
  O     15.031304   15.815480   21.767680
  C     16.731655   16.154495   20.135573
  H     14.681585   14.709903   15.156683
  H     14.335363   13.174722   15.976426
  H     15.824251   13.353474   15.021807
  H     15.196227   14.910686   17.623074
  H     16.262454   13.493952   17.502354
  H     15.496686   19.361300   16.941509
  H     16.742254   19.472985   15.691843
  H     16.700865   20.658111   17.003804
  H     18.118908   20.370373   18.597479
  H     20.154778   17.084342   19.695344
  H     19.156319   15.927378   17.730569
  H     19.010601   13.916278   18.931286
  H     17.821231   12.433971   20.532802
  H     15.922962   13.336158   21.879332
  H     14.733657   15.113605   22.365998
  H     16.423218   17.190529   20.046163

 Total Charge           Charge          ....    0
 Multiplicity           Mult            ....    1
 Number of Electrons    NEL             ....  154
 Basis Dimension        Dim             ....  828

ORBITAL ENERGIES
----------------

  NO   OCC          E(Eh)            E(eV)
   0   2.0000     -91.889988     -2500.4537
   1   2.0000     -20.600424      -560.5660
   2   2.0000     -20.586635      -560.1908
   3   2.0000     -20.546759      -559.1057
   4   2.0000     -15.630418      -425.3253
   5   2.0000     -15.609389      -424.7531
   6   2.0000     -11.394716      -310.0660
   7   2.0000     -11.385014      -309.8020
   8   2.0000     -11.337014      -308.4958
   9   2.0000     -11.318001      -307.9785
  10   2.0000     -11.310875      -307.7846
  11   2.0000     -11.295153      -307.3568
  12   2.0000     -11.263227      -306.4880
  13   2.0000     -11.259517      -306.3870
  14   2.0000     -11.259355      -306.3826
  15   2.0000     -11.253409      -306.2208
  16   2.0000     -11.246901      -306.0437
  17   2.0000     -11.241812      -305.9053
  18   2.0000     -11.241666      -305.9013
  19   2.0000     -11.216260      -305.2099
  20   2.0000      -8.895043      -242.0464
  21   2.0000      -6.576615      -178.9588
  22   2.0000      -6.574613      -178.9043
  23   2.0000      -6.574023      -178.8883
  24   2.0000      -1.448829       -39.4246
  25   2.0000      -1.420091       -38.6426
  26   2.0000      -1.353840       -36.8399
  27   2.0000      -1.341464       -36.5031
  28   2.0000      -1.240045       -33.7433
  29   2.0000      -1.161015       -31.5928
  30   2.0000      -1.121265       -30.5112
  31   2.0000      -1.045175       -28.4407
  32   2.0000      -1.031230       -28.0612
  33   2.0000      -1.019112       -27.7314
  34   2.0000      -0.996424       -27.1141
  35   2.0000      -0.984903       -26.8006
  36   2.0000      -0.924615       -25.1601
  37   2.0000      -0.883963       -24.0539
  38   2.0000      -0.849018       -23.1030
  39   2.0000      -0.841187       -22.8899
  40   2.0000      -0.837429       -22.7876
  41   2.0000      -0.824843       -22.4451
  42   2.0000      -0.756134       -20.5754
  43   2.0000      -0.734557       -19.9883
  44   2.0000      -0.722361       -19.6564
  45   2.0000      -0.699278       -19.0283
  46   2.0000      -0.690311       -18.7843
  47   2.0000      -0.679656       -18.4944
  48   2.0000      -0.670717       -18.2511
  49   2.0000      -0.656771       -17.8716
  50   2.0000      -0.648283       -17.6407
  51   2.0000      -0.646671       -17.5968
  52   2.0000      -0.634779       -17.2732
  53   2.0000      -0.611101       -16.6289
  54   2.0000      -0.604711       -16.4550
  55   2.0000      -0.601046       -16.3553
  56   2.0000      -0.594861       -16.1870
  57   2.0000      -0.582589       -15.8530
  58   2.0000      -0.575708       -15.6658
  59   2.0000      -0.571155       -15.5419
  60   2.0000      -0.565476       -15.3874
  61   2.0000      -0.539386       -14.6774
  62   2.0000      -0.534764       -14.5517
  63   2.0000      -0.528122       -14.3709
  64   2.0000      -0.516145       -14.0450
  65   2.0000      -0.511416       -13.9163
  66   2.0000      -0.503298       -13.6954
  67   2.0000      -0.497513       -13.5380
  68   2.0000      -0.488073       -13.2811
  69   2.0000      -0.463807       -12.6208
  70   2.0000      -0.454482       -12.3671
  71   2.0000      -0.443197       -12.0600
  72   2.0000      -0.355599        -9.6763
  73   2.0000      -0.353131        -9.6092
  74   2.0000      -0.329804        -8.9744
  75   2.0000      -0.325208        -8.8494
  76   2.0000      -0.317436        -8.6379
  77   0.0000       0.071121         1.9353
  78   0.0000       0.101622         2.7653
  79   0.0000       0.123162         3.3514
  80   0.0000       0.130056         3.5390
  81   0.0000       0.134429         3.6580

MULLIKEN ATOMIC CHARGES
-----------------------
   0 C :   -0.271167
   1 C :    0.029609
   2 O :   -0.380189
   3 C :    0.473997
   4 O :   -0.417511
   5 C :   -0.247334
   6 C :    0.161364
   7 C :   -0.270008
   8 N :   -0.123230
   9 C :    0.215002
  10 S :   -0.439593
  11 N :   -0.207521
  12 C :    0.069155
  13 C :    0.065643
  14 C :   -0.205786
  15 C :   -0.127009
  16 C :   -0.277964
  17 C :    0.315456
  18 O :   -0.356049
  19 C :   -0.266790
  20 H :    0.117394
  21 H :    0.087120
  22 H :    0.090594
  23 H :    0.095628
  24 H :    0.111238
  25 H :    0.131623
  26 H :    0.130700
  27 H :    0.095667
  28 H :    0.197578
  29 H :    0.194868
  30 H :    0.150264
  31 H :    0.149846
  32 H :    0.165078
  33 H :    0.132696
  34 H :    0.241653
  35 H :    0.167979
Sum of atomic charges:   -0.0000000

LOEWDIN ATOMIC CHARGES
----------------------
   0 C :    0.104946
   1 C :   -0.018048
   2 O :    0.292622
   3 C :   -0.416436
   4 O :    0.114092
   5 C :   -0.097280
   6 C :   -0.058481
   7 C :    0.131296
   8 N :    0.406987
   9 C :   -0.455833
  10 S :   -0.034682
  11 N :    0.396074
  12 C :   -0.052445
  13 C :   -0.036319
  14 C :    0.014625
  15 C :    0.040561
  16 C :   -0.002198
  17 C :   -0.190080
  18 O :    0.396171
  19 C :    0.031044
  20 H :   -0.025685
  21 H :   -0.030702
  22 H :   -0.028883
  23 H :   -0.029864
  24 H :   -0.025940
  25 H :   -0.004910
  26 H :   -0.003825
  27 H :   -0.023129
  28 H :   -0.057357
  29 H :   -0.064982
  30 H :   -0.009188
  31 H :   -0.029631
  32 H :   -0.020411
  33 H :   -0.034868
  34 H :   -0.152957
  35 H :   -0.024282

  Mayer bond orders larger than 0.100000
B(  0-C ,  1-C ) :   0.9844 B(  0-C , 20-H ) :   0.9738 B(  0-C , 21-H ) :   0.9782
B(  0-C , 22-H ) :   0.9777 B(  1-C ,  2-O ) :   0.8751 B(  1-C , 23-H ) :   0.9680
B(  1-C , 24-H ) :   0.9763 B(  2-O ,  3-C ) :   1.1016 B(  3-C ,  4-O ) :   1.9852
B(  3-C ,  5-C ) :   1.0742 B(  5-C ,  6-C ) :   1.6464 B(  5-C , 12-C ) :   0.9707
B(  6-C ,  7-C ) :   0.9665 B(  6-C ,  8-N ) :   1.1614 B(  7-C , 25-H ) :   0.9595
B(  7-C , 26-H ) :   0.9607 B(  7-C , 27-H ) :   0.9906 B(  8-N ,  9-C ) :   1.1823
B(  8-N , 28-H ) :   0.9476 B(  9-C , 10-S ) :   1.6059 B(  9-C , 11-N ) :   1.3074
B( 11-N , 12-C ) :   0.9725 B( 11-N , 29-H ) :   0.9519 B( 12-C , 13-C ) :   0.9407
B( 12-C , 30-H ) :   1.0016 B( 13-C , 14-C ) :   1.3439 B( 13-C , 19-C ) :   1.3735
B( 14-C , 15-C ) :   1.3892 B( 14-C , 31-H ) :   0.9757 B( 15-C , 16-C ) :   1.3627
B( 15-C , 32-H ) :   0.9692 B( 16-C , 17-C ) :   1.3305 B( 16-C , 33-H ) :   0.9840
B( 17-C , 18-O ) :   1.1126 B( 17-C , 19-C ) :   1.3698 B( 18-O , 34-H ) :   0.9790
B( 19-C , 35-H ) :   0.9586

MP2 TOTAL ENERGY:    -1274.335072162 Eh
FINAL SINGLE POINT ENERGY     -1274.335072162318

DIPOLE MOMENT
-------------
                                X             Y             Z
Electronic contribution:     10.42935       9.94122       7.65304
Nuclear contribution   :    -11.39682     -11.46370      -7.64829
                        -----------------------------------------
Total Dipole Moment    :     -0.96747      -1.52248       0.00475
                        -----------------------------------------
Magnitude (a.u.)       :      1.80388
Magnitude (Debye)      :      4.58509

Rotational constants in cm-1:     0.012241     0.008707     0.006264
Rotational constants in MHz :   366.978240   261.025809   187.786007

                             ****ORCA TERMINATED NORMALLY****
TOTAL RUN TIME: 0 days 1 hours 43 minutes 23 seconds 887 msec
