                         Program Version 5.0.0 -  RELEASE  -
|  1> ! ri-mp2 cc-pvtz cc-pvtz/c TightSCF NoKeepInts
|  2>
|  3> %scf
|  4>   MaxCore 4096
|  5> end
|  6> *xyz  0  1
|  7>     C       16.0139656   13.1108317   16.5688682
|  8>     C       15.6732608   14.6057805   16.6888252
|  9>     O       16.8599592   15.3512500   16.3692199
| 10>     C       16.7475289   16.7092371   16.3038469
| 11>     O       15.8454134   17.2283857   15.6699329
| 12>     C       17.5335136   17.4198291   17.3726640
| 13>     C       17.4905085   18.7681041   17.5288713
| 14>     C       16.6798274   19.7607869   16.7230312
| 15>     N       18.2907639   19.3879110   18.4934066
| 16>     C       19.2575017   18.7570083   19.2298327
| 17>     S       20.2539441   19.5837689   20.2590959
| 18>     N       19.3654548   17.4003183   19.0610582
| 19>     C       18.4245477   16.5665406   18.2917175
| 20>     C       17.6154156   15.7041934   19.2557149
| 21>     C       17.9364921   14.3449756   19.4283917
| 22>     C       17.1953294   13.5411622   20.3107685
| 23>     C       16.1281574   14.1024737   21.0322580
| 24>     C       15.8135005   15.4588071   20.8727278
| 25>     O       14.7859621   16.0048867   21.5701204
| 26>     C       16.5517161   16.2558408   19.9925056
| 27>     H       16.8201493   12.8374812   17.2593962
| 28>     H       16.3355397   12.8700187   15.5479773
| 29>     H       15.1364366   12.4974753   16.8062846
| 30>     H       14.8640718   14.8527903   15.9878409
| 31>     H       15.3350761   14.8367423   17.7076632
| 32>     H       15.6057347   19.5769267   16.8542500
| 33>     H       16.8996887   19.6614650   15.6524174
| 34>     H       16.8749152   20.8025340   17.0033605
| 35>     H       18.2286978   20.3848761   18.6252084
| 36>     H       20.0664795   16.9587611   19.6418785
| 37>     H       19.0204213   15.9014322   17.6506246
| 38>     H       18.7603740   13.9079594   18.8703259
| 39>     H       17.4498337   12.4898652   20.4348364
| 40>     H       15.5535516   13.4860946   21.7159781
| 41>     H       14.4366086   15.3202714   22.1604375
| 42>     H       16.2966587   17.3052152   19.8926630
| 43> *
| 44>
| 45>                          ****END OF INPUT****

CARTESIAN COORDINATES (ANGSTROEM)
---------------------------------
  C     16.013966   13.110832   16.568868
  C     15.673261   14.605780   16.688825
  O     16.859959   15.351250   16.369220
  C     16.747529   16.709237   16.303847
  O     15.845413   17.228386   15.669933
  C     17.533514   17.419829   17.372664
  C     17.490509   18.768104   17.528871
  C     16.679827   19.760787   16.723031
  N     18.290764   19.387911   18.493407
  C     19.257502   18.757008   19.229833
  S     20.253944   19.583769   20.259096
  N     19.365455   17.400318   19.061058
  C     18.424548   16.566541   18.291718
  C     17.615416   15.704193   19.255715
  C     17.936492   14.344976   19.428392
  C     17.195329   13.541162   20.310768
  C     16.128157   14.102474   21.032258
  C     15.813500   15.458807   20.872728
  O     14.785962   16.004887   21.570120
  C     16.551716   16.255841   19.992506
  H     16.820149   12.837481   17.259396
  H     16.335540   12.870019   15.547977
  H     15.136437   12.497475   16.806285
  H     14.864072   14.852790   15.987841
  H     15.335076   14.836742   17.707663
  H     15.605735   19.576927   16.854250
  H     16.899689   19.661465   15.652417
  H     16.874915   20.802534   17.003360
  H     18.228698   20.384876   18.625208
  H     20.066479   16.958761   19.641879
  H     19.020421   15.901432   17.650625
  H     18.760374   13.907959   18.870326
  H     17.449834   12.489865   20.434836
  H     15.553552   13.486095   21.715978
  H     14.436609   15.320271   22.160438
  H     16.296659   17.305215   19.892663

 Total Charge           Charge          ....    0
 Multiplicity           Mult            ....    1
 Number of Electrons    NEL             ....  154
 Basis Dimension        Dim             ....  828

ORBITAL ENERGIES
----------------

  NO   OCC          E(Eh)            E(eV)
   0   2.0000     -91.890122     -2500.4574
   1   2.0000     -20.600852      -560.5777
   2   2.0000     -20.588060      -560.2296
   3   2.0000     -20.545102      -559.0606
   4   2.0000     -15.630570      -425.3294
   5   2.0000     -15.609537      -424.7571
   6   2.0000     -11.392721      -310.0117
   7   2.0000     -11.385110      -309.8046
   8   2.0000     -11.337038      -308.4965
   9   2.0000     -11.318585      -307.9944
  10   2.0000     -11.311206      -307.7936
  11   2.0000     -11.292872      -307.2947
  12   2.0000     -11.263803      -306.5037
  13   2.0000     -11.260197      -306.4055
  14   2.0000     -11.259434      -306.3848
  15   2.0000     -11.253098      -306.2124
  16   2.0000     -11.247614      -306.0631
  17   2.0000     -11.242418      -305.9217
  18   2.0000     -11.242201      -305.9158
  19   2.0000     -11.225925      -305.4729
  20   2.0000      -8.895172      -242.0499
  21   2.0000      -6.576743      -178.9623
  22   2.0000      -6.574741      -178.9078
  23   2.0000      -6.574151      -178.8918
  24   2.0000      -1.449876       -39.4531
  25   2.0000      -1.420538       -38.6548
  26   2.0000      -1.352778       -36.8110
  27   2.0000      -1.341616       -36.5072
  28   2.0000      -1.240232       -33.7484
  29   2.0000      -1.161753       -31.6129
  30   2.0000      -1.121511       -30.5179
  31   2.0000      -1.045620       -28.4528
  32   2.0000      -1.035368       -28.1738
  33   2.0000      -1.019899       -27.7529
  34   2.0000      -0.997287       -27.1376
  35   2.0000      -0.985643       -26.8207
  36   2.0000      -0.924938       -25.1689
  37   2.0000      -0.881524       -23.9875
  38   2.0000      -0.848768       -23.0962
  39   2.0000      -0.841110       -22.8878
  40   2.0000      -0.837711       -22.7953
  41   2.0000      -0.824054       -22.4237
  42   2.0000      -0.762399       -20.7459
  43   2.0000      -0.735868       -20.0240
  44   2.0000      -0.723984       -19.7006
  45   2.0000      -0.700034       -19.0489
  46   2.0000      -0.689831       -18.7713
  47   2.0000      -0.678042       -18.4505
  48   2.0000      -0.674168       -18.3450
  49   2.0000      -0.658054       -17.9066
  50   2.0000      -0.647932       -17.6311
  51   2.0000      -0.644173       -17.5288
  52   2.0000      -0.635641       -17.2967
  53   2.0000      -0.613577       -16.6963
  54   2.0000      -0.611765       -16.6470
  55   2.0000      -0.603373       -16.4186
  56   2.0000      -0.600729       -16.3467
  57   2.0000      -0.581222       -15.8159
  58   2.0000      -0.572131       -15.5685
  59   2.0000      -0.566293       -15.4096
  60   2.0000      -0.554709       -15.0944
  61   2.0000      -0.539942       -14.6926
  62   2.0000      -0.535617       -14.5749
  63   2.0000      -0.528883       -14.3916
  64   2.0000      -0.518914       -14.1204
  65   2.0000      -0.515060       -14.0155
  66   2.0000      -0.506787       -13.7904
  67   2.0000      -0.501104       -13.6357
  68   2.0000      -0.486812       -13.2468
  69   2.0000      -0.465037       -12.6543
  70   2.0000      -0.457033       -12.4365
  71   2.0000      -0.444730       -12.1017
  72   2.0000      -0.356132        -9.6908
  73   2.0000      -0.353782        -9.6269
  74   2.0000      -0.330019        -8.9803
  75   2.0000      -0.325782        -8.8650
  76   2.0000      -0.317491        -8.6394
  77   0.0000       0.071066         1.9338
  78   0.0000       0.101837         2.7711
  79   0.0000       0.122828         3.3423
  80   0.0000       0.129042         3.5114
  81   0.0000       0.133523         3.6334

MULLIKEN ATOMIC CHARGES
-----------------------
   0 C :   -0.269060
   1 C :    0.014153
   2 O :   -0.375500
   3 C :    0.494888
   4 O :   -0.416440
   5 C :   -0.274588
   6 C :    0.160413
   7 C :   -0.269299
   8 N :   -0.123845
   9 C :    0.215504
  10 S :   -0.439416
  11 N :   -0.207359
  12 C :    0.065141
  13 C :    0.039324
  14 C :   -0.191004
  15 C :   -0.132205
  16 C :   -0.272164
  17 C :    0.311382
  18 O :   -0.356392
  19 C :   -0.253102
  20 H :    0.090270
  21 H :    0.103328
  22 H :    0.090305
  23 H :    0.127352
  24 H :    0.102414
  25 H :    0.132067
  26 H :    0.131181
  27 H :    0.095384
  28 H :    0.197889
  29 H :    0.194449
  30 H :    0.149637
  31 H :    0.156852
  32 H :    0.165377
  33 H :    0.133192
  34 H :    0.241590
  35 H :    0.168282
Sum of atomic charges:   -0.0000000

LOEWDIN ATOMIC CHARGES
----------------------
   0 C :    0.109080
   1 C :   -0.018840
   2 O :    0.294652
   3 C :   -0.416649
   4 O :    0.111079
   5 C :   -0.097816
   6 C :   -0.058242
   7 C :    0.131507
   8 N :    0.407184
   9 C :   -0.455521
  10 S :   -0.034435
  11 N :    0.396054
  12 C :   -0.052846
  13 C :   -0.037306
  14 C :    0.014603
  15 C :    0.043069
  16 C :   -0.001798
  17 C :   -0.190522
  18 O :    0.396560
  19 C :    0.030440
  20 H :   -0.032598
  21 H :   -0.026469
  22 H :   -0.025036
  23 H :   -0.028426
  24 H :   -0.032419
  25 H :   -0.004734
  26 H :   -0.003619
  27 H :   -0.023183
  28 H :   -0.057290
  29 H :   -0.065255
  30 H :   -0.008789
  31 H :   -0.030394
  32 H :   -0.020134
  33 H :   -0.034581
  34 H :   -0.152881
  35 H :   -0.024442

  Mayer bond orders larger than 0.100000
B(  0-C ,  1-C ) :   0.9766 B(  0-C , 20-H ) :   0.9760 B(  0-C , 21-H ) :   0.9783
B(  0-C , 22-H ) :   0.9769 B(  1-C ,  2-O ) :   0.8763 B(  1-C , 23-H ) :   0.9809
B(  1-C , 24-H ) :   0.9656 B(  2-O ,  3-C ) :   1.1238 B(  3-C ,  4-O ) :   2.0037
B(  3-C ,  5-C ) :   1.0641 B(  5-C ,  6-C ) :   1.6490 B(  5-C , 12-C ) :   0.9723
B(  6-C ,  7-C ) :   0.9665 B(  6-C ,  8-N ) :   1.1610 B(  7-C , 25-H ) :   0.9595
B(  7-C , 26-H ) :   0.9605 B(  7-C , 27-H ) :   0.9904 B(  8-N ,  9-C ) :   1.1825
B(  8-N , 28-H ) :   0.9477 B(  9-C , 10-S ) :   1.6059 B(  9-C , 11-N ) :   1.3070
B( 11-N , 12-C ) :   0.9709 B( 11-N , 29-H ) :   0.9525 B( 12-C , 13-C ) :   0.9437
B( 12-C , 30-H ) :   1.0007 B( 13-C , 14-C ) :   1.3491 B( 13-C , 19-C ) :   1.3743
B( 14-C , 15-C ) :   1.3853 B( 14-C , 31-H ) :   0.9716 B( 15-C , 16-C ) :   1.3657
B( 15-C , 32-H ) :   0.9687 B( 16-C , 17-C ) :   1.3283 B( 16-C , 33-H ) :   0.9839
B( 17-C , 18-O ) :   1.1140 B( 17-C , 19-C ) :   1.3730 B( 18-O , 34-H ) :   0.9791
B( 19-C , 35-H ) :   0.9582

MP2 TOTAL ENERGY:    -1274.338250266 Eh
FINAL SINGLE POINT ENERGY     -1274.338250265539

DIPOLE MOMENT
-------------
                                X             Y             Z
Electronic contribution:      8.68087      11.13583       5.91292
Nuclear contribution   :     -9.71940     -12.63964      -5.90357
                        -----------------------------------------
Total Dipole Moment    :     -1.03853      -1.50381       0.00935
                        -----------------------------------------
Magnitude (a.u.)       :      1.82759
Magnitude (Debye)      :      4.64536

Rotational constants in cm-1:     0.012650     0.008580     0.006443
Rotational constants in MHz :   379.231452   257.219250   193.159717

                             ****ORCA TERMINATED NORMALLY****
TOTAL RUN TIME: 0 days 2 hours 8 minutes 37 seconds 921 msec
