                         Program Version 4.2.0 -  RELEASE  -
|  1> ! ri-mp2 cc-pvtz cc-pvtz/c TightSCF  NoKeepInts
|  2>
|  3> %scf
|  4>   MaxCore 4096
|  5> end
|  6> *xyz  0  1
|  7>     C       15.2859823   15.0031855   17.2885016
|  8>     C       15.6181731   15.0989153   15.7832652
|  9>     O       16.8712302   15.7673455   15.5053639
| 10>     C       17.9089131   15.7687510   16.3923457
| 11>     O       18.5435425   14.7473494   16.5890374
| 12>     C       17.9110002   16.9083783   17.3737236
| 13>     C       17.3311448   18.1162632   17.1494698
| 14>     C       16.5836467   18.5750686   15.9143126
| 15>     N       17.4688544   19.1384747   18.0942251
| 16>     C       18.3121310   19.0964149   19.1731874
| 17>     S       18.5325985   20.4060435   20.1586099
| 18>     N       18.9630966   17.9089015   19.3928276
| 19>     C       18.6789646   16.6507891   18.6766663
| 20>     C       17.9287627   15.6773538   19.5828323
| 21>     C       18.3742782   14.3498994   19.7226492
| 22>     C       17.6824051   13.4434531   20.5431475
| 23>     C       16.5334778   13.8665849   21.2324196
| 24>     C       16.0853425   15.1872095   21.0962762
| 25>     O       14.9704034   15.5966450   21.7520954
| 26>     C       16.7764333   16.0873883   20.2793964
| 27>     H       16.0239371   14.3899222   17.8208692
| 28>     H       14.3070736   14.5291106   17.4284162
| 29>     H       15.2434799   15.9958521   17.7518496
| 30>     H       15.6726032   14.0775411   15.3836722
| 31>     H       14.8058817   15.6146274   15.2553994
| 32>     H       15.5865897   18.1211150   15.8710981
| 33>     H       17.1245299   18.2937992   15.0018905
| 34>     H       16.4536042   19.6637485   15.8817586
| 35>     H       17.0029912   20.0197109   17.9472226
| 36>     H       19.5593326   17.8940590   20.2104181
| 37>     H       19.6443420   16.1952466   18.4120138
| 38>     H       19.2517850   14.0140339   19.1748235
| 39>     H       18.0345629   12.4175541   20.6356548
| 40>     H       15.9943645   13.1687103   21.8643765
| 41>     H       14.6708488   14.8581251   22.3033984
| 42>     H       16.4106925   17.1044298   20.1907859
| 43> *
| 44>
| 45>                          ****END OF INPUT****

CARTESIAN COORDINATES (ANGSTROEM)
---------------------------------
  C     15.285982   15.003186   17.288502
  C     15.618173   15.098915   15.783265
  O     16.871230   15.767345   15.505364
  C     17.908913   15.768751   16.392346
  O     18.543543   14.747349   16.589037
  C     17.911000   16.908378   17.373724
  C     17.331145   18.116263   17.149470
  C     16.583647   18.575069   15.914313
  N     17.468854   19.138475   18.094225
  C     18.312131   19.096415   19.173187
  S     18.532598   20.406043   20.158610
  N     18.963097   17.908901   19.392828
  C     18.678965   16.650789   18.676666
  C     17.928763   15.677354   19.582832
  C     18.374278   14.349899   19.722649
  C     17.682405   13.443453   20.543147
  C     16.533478   13.866585   21.232420
  C     16.085342   15.187209   21.096276
  O     14.970403   15.596645   21.752095
  C     16.776433   16.087388   20.279396
  H     16.023937   14.389922   17.820869
  H     14.307074   14.529111   17.428416
  H     15.243480   15.995852   17.751850
  H     15.672603   14.077541   15.383672
  H     14.805882   15.614627   15.255399
  H     15.586590   18.121115   15.871098
  H     17.124530   18.293799   15.001891
  H     16.453604   19.663748   15.881759
  H     17.002991   20.019711   17.947223
  H     19.559333   17.894059   20.210418
  H     19.644342   16.195247   18.412014
  H     19.251785   14.014034   19.174823
  H     18.034563   12.417554   20.635655
  H     15.994364   13.168710   21.864376
  H     14.670849   14.858125   22.303398
  H     16.410692   17.104430   20.190786

 Total Charge           Charge          ....    0
 Multiplicity           Mult            ....    1
 Number of Electrons    NEL             ....  154
 Basis Dimension        Dim             ....  828

ORBITAL ENERGIES
----------------

  NO   OCC          E(Eh)            E(eV)
   0   2.0000     -91.890704     -2500.4732
   1   2.0000     -20.595375      -560.4286
   2   2.0000     -20.581326      -560.0464
   3   2.0000     -20.552190      -559.2535
   4   2.0000     -15.631463      -425.3537
   5   2.0000     -15.609019      -424.7430
   6   2.0000     -11.395380      -310.0841
   7   2.0000     -11.385572      -309.8172
   8   2.0000     -11.338585      -308.5386
   9   2.0000     -11.311320      -307.7967
  10   2.0000     -11.308373      -307.7165
  11   2.0000     -11.306081      -307.6541
  12   2.0000     -11.262653      -306.4724
  13   2.0000     -11.262280      -306.4622
  14   2.0000     -11.256929      -306.3166
  15   2.0000     -11.251531      -306.1697
  16   2.0000     -11.241321      -305.8919
  17   2.0000     -11.236755      -305.7676
  18   2.0000     -11.233629      -305.6826
  19   2.0000     -11.228726      -305.5492
  20   2.0000      -8.895751      -242.0657
  21   2.0000      -6.577323      -178.9780
  22   2.0000      -6.575319      -178.9235
  23   2.0000      -6.574728      -178.9074
  24   2.0000      -1.446596       -39.3639
  25   2.0000      -1.415179       -38.5090
  26   2.0000      -1.353574       -36.8326
  27   2.0000      -1.342251       -36.5245
  28   2.0000      -1.239597       -33.7311
  29   2.0000      -1.155643       -31.4466
  30   2.0000      -1.121551       -30.5189
  31   2.0000      -1.044000       -28.4087
  32   2.0000      -1.032954       -28.1081
  33   2.0000      -1.013443       -27.5772
  34   2.0000      -1.001751       -27.2590
  35   2.0000      -0.987447       -26.8698
  36   2.0000      -0.924937       -25.1688
  37   2.0000      -0.896633       -24.3986
  38   2.0000      -0.850874       -23.1535
  39   2.0000      -0.839339       -22.8396
  40   2.0000      -0.831738       -22.6327
  41   2.0000      -0.818968       -22.2853
  42   2.0000      -0.745747       -20.2928
  43   2.0000      -0.731539       -19.9062
  44   2.0000      -0.727760       -19.8034
  45   2.0000      -0.693554       -18.8726
  46   2.0000      -0.687583       -18.7101
  47   2.0000      -0.676578       -18.4106
  48   2.0000      -0.672952       -18.3120
  49   2.0000      -0.661782       -18.0080
  50   2.0000      -0.652564       -17.7572
  51   2.0000      -0.647666       -17.6239
  52   2.0000      -0.638272       -17.3683
  53   2.0000      -0.622368       -16.9355
  54   2.0000      -0.603670       -16.4267
  55   2.0000      -0.603372       -16.4186
  56   2.0000      -0.599402       -16.3105
  57   2.0000      -0.581332       -15.8188
  58   2.0000      -0.575647       -15.6642
  59   2.0000      -0.563503       -15.3337
  60   2.0000      -0.553806       -15.0698
  61   2.0000      -0.546499       -14.8710
  62   2.0000      -0.539329       -14.6759
  63   2.0000      -0.533955       -14.5297
  64   2.0000      -0.520753       -14.1704
  65   2.0000      -0.512360       -13.9420
  66   2.0000      -0.499757       -13.5991
  67   2.0000      -0.493091       -13.4177
  68   2.0000      -0.481082       -13.0909
  69   2.0000      -0.466349       -12.6900
  70   2.0000      -0.453665       -12.3448
  71   2.0000      -0.449753       -12.2384
  72   2.0000      -0.356618        -9.7041
  73   2.0000      -0.346748        -9.4355
  74   2.0000      -0.329747        -8.9729
  75   2.0000      -0.319671        -8.6987
  76   2.0000      -0.317344        -8.6354
  77   0.0000       0.068177         1.8552
  78   0.0000       0.107585         2.9275
  79   0.0000       0.118045         3.2122
  80   0.0000       0.132426         3.6035
  81   0.0000       0.136988         3.7276

MULLIKEN ATOMIC CHARGES
-----------------------
   0 C :   -0.350074
   1 C :    0.040776
   2 O :   -0.389856
   3 C :    0.490552
   4 O :   -0.400657
   5 C :   -0.224337
   6 C :    0.152789
   7 C :   -0.293506
   8 N :   -0.123144
   9 C :    0.191659
  10 S :   -0.435036
  11 N :   -0.198183
  12 C :    0.043438
  13 C :    0.044336
  14 C :   -0.171333
  15 C :   -0.134510
  16 C :   -0.279569
  17 C :    0.317262
  18 O :   -0.360415
  19 C :   -0.279988
  20 H :    0.133565
  21 H :    0.120497
  22 H :    0.104708
  23 H :    0.116018
  24 H :    0.107086
  25 H :    0.116482
  26 H :    0.137484
  27 H :    0.109635
  28 H :    0.197511
  29 H :    0.193694
  30 H :    0.156683
  31 H :    0.161111
  32 H :    0.161601
  33 H :    0.130684
  34 H :    0.240794
  35 H :    0.172243
Sum of atomic charges:   -0.0000000

LOEWDIN ATOMIC CHARGES
----------------------
   0 C :    0.104954
   1 C :   -0.015338
   2 O :    0.280195
   3 C :   -0.421040
   4 O :    0.124972
   5 C :   -0.093945
   6 C :   -0.068779
   7 C :    0.126893
   8 N :    0.405686
   9 C :   -0.460029
  10 S :   -0.033294
  11 N :    0.397779
  12 C :   -0.045713
  13 C :   -0.040963
  14 C :    0.020684
  15 C :    0.040767
  16 C :   -0.002341
  17 C :   -0.193646
  18 O :    0.393978
  19 C :    0.030599
  20 H :   -0.019614
  21 H :   -0.022306
  22 H :   -0.033423
  23 H :   -0.025434
  24 H :   -0.027899
  25 H :   -0.012510
  26 H :   -0.005394
  27 H :   -0.019177
  28 H :   -0.058725
  29 H :   -0.063593
  30 H :   -0.003337
  31 H :   -0.024084
  32 H :   -0.020178
  33 H :   -0.035646
  34 H :   -0.154134
  35 H :   -0.025962

  Mayer bond orders larger than 0.100000
B(  0-C ,  1-C ) :   0.9607 B(  0-C , 20-H ) :   0.9646 B(  0-C , 21-H ) :   0.9751
B(  0-C , 22-H ) :   0.9699 B(  1-C ,  2-O ) :   0.8909 B(  1-C , 23-H ) :   0.9860
B(  1-C , 24-H ) :   0.9809 B(  2-O ,  3-C ) :   1.0927 B(  3-C ,  4-O ) :   2.0331
B(  3-C ,  5-C ) :   1.0189 B(  5-C ,  6-C ) :   1.6543 B(  5-C , 12-C ) :   0.9655
B(  6-C ,  7-C ) :   0.9551 B(  6-C ,  8-N ) :   1.1402 B(  7-C , 25-H ) :   0.9662
B(  7-C , 26-H ) :   0.9643 B(  7-C , 27-H ) :   0.9899 B(  8-N ,  9-C ) :   1.1778
B(  8-N , 28-H ) :   0.9487 B(  9-C , 10-S ) :   1.6163 B(  9-C , 11-N ) :   1.3014
B( 11-N , 12-C ) :   0.9878 B( 11-N , 29-H ) :   0.9524 B( 12-C , 13-C ) :   0.9469
B( 12-C , 30-H ) :   0.9994 B( 13-C , 14-C ) :   1.3840 B( 13-C , 19-C ) :   1.3505
B( 14-C , 15-C ) :   1.3951 B( 14-C , 31-H ) :   0.9616 B( 15-C , 16-C ) :   1.3620
B( 15-C , 32-H ) :   0.9710 B( 16-C , 17-C ) :   1.3311 B( 16-C , 33-H ) :   0.9850
B( 17-C , 18-O ) :   1.1098 B( 17-C , 19-C ) :   1.3730 B( 18-O , 34-H ) :   0.9802
B( 19-C , 35-H ) :   0.9583

MP2 TOTAL ENERGY:    -1274.327128934 Eh
FINAL SINGLE POINT ENERGY     -1274.327128934231

DIPOLE MOMENT
-------------
                                X             Y             Z
Electronic contribution:      9.73891       7.95059       6.20564
Nuclear contribution   :    -11.18056      -9.05334      -6.85467
                        -----------------------------------------
Total Dipole Moment    :     -1.44165      -1.10276      -0.64903
                        -----------------------------------------
Magnitude (a.u.)       :      1.92760
Magnitude (Debye)      :      4.89958

Rotational constants in cm-1:     0.011454     0.009880     0.006787
Rotational constants in MHz :   343.377236   296.208147   203.456868

                             ****ORCA TERMINATED NORMALLY****
TOTAL RUN TIME: 0 days 1 hours 49 minutes 46 seconds 234 msec
