                         Program Version 4.2.0 -  RELEASE  -
|  1> ! ri-mp2 cc-pvtz cc-pvtz/c TightSCF  NoKeepInts
|  2>
|  3> %scf
|  4>   MaxCore 4096
|  5> end
|  6> *xyz  0  1
|  7>     C       15.1766458   15.2454094   17.4961933
|  8>     C       15.5239790   15.4368037   16.0066974
|  9>     O       16.9265922   15.2071986   15.7287724
| 10>     C       18.0135244   15.5883264   16.4806307
| 11>     O       18.9869159   14.8590955   16.5329267
| 12>     C       17.9078987   16.7936113   17.3668247
| 13>     C       17.3986703   17.9844234   16.9634809
| 14>     C       16.9111985   18.3702589   15.5827154
| 15>     N       17.4278102   19.0830290   17.8260217
| 16>     C       18.0941439   19.1213076   19.0219034
| 17>     S       18.1622974   20.4976772   19.9356268
| 18>     N       18.7080303   17.9605129   19.4189611
| 19>     C       18.5806389   16.6558950   18.7401303
| 20>     C       17.8704617   15.6364391   19.6298034
| 21>     C       18.2997087   14.2961287   19.6448585
| 22>     C       17.6519493   13.3426745   20.4475712
| 23>     C       16.5643169   13.7306241   21.2475713
| 24>     C       16.1341405   15.0639175   21.2400307
| 25>     O       15.0787793   15.4407080   22.0047139
| 26>     C       16.7812156   16.0113489   20.4403229
| 27>     H       15.7170167   14.3901790   17.9224788
| 28>     H       14.1029925   15.0533994   17.6111264
| 29>     H       15.4064132   16.1430782   18.0787861
| 30>     H       14.9441089   14.7136937   15.4183500
| 31>     H       15.2043335   16.4311309   15.6827258
| 32>     H       17.1259166   17.6019130   14.8307544
| 33>     H       17.4149965   19.2820261   15.2365442
| 34>     H       15.8327818   18.5684866   15.5804449
| 35>     H       17.0043941   19.9523575   17.5415879
| 36>     H       19.1826467   18.0119832   20.3115905
| 37>     H       19.6010306   16.2828137   18.5667242
| 38>     H       19.1355788   13.9882533   19.0200108
| 39>     H       17.9927225   12.3086383   20.4433966
| 40>     H       16.0597437   12.9965852   21.8670942
| 41>     H       14.7993777   14.6663290   22.5160921
| 42>     H       16.4240287   17.0357429   20.4505364
| 43> *
| 44>
| 45>                          ****END OF INPUT****

CARTESIAN COORDINATES (ANGSTROEM)
---------------------------------
  C     15.176646   15.245409   17.496193
  C     15.523979   15.436804   16.006697
  O     16.926592   15.207199   15.728772
  C     18.013524   15.588326   16.480631
  O     18.986916   14.859095   16.532927
  C     17.907899   16.793611   17.366825
  C     17.398670   17.984423   16.963481
  C     16.911199   18.370259   15.582715
  N     17.427810   19.083029   17.826022
  C     18.094144   19.121308   19.021903
  S     18.162297   20.497677   19.935627
  N     18.708030   17.960513   19.418961
  C     18.580639   16.655895   18.740130
  C     17.870462   15.636439   19.629803
  C     18.299709   14.296129   19.644859
  C     17.651949   13.342674   20.447571
  C     16.564317   13.730624   21.247571
  C     16.134141   15.063917   21.240031
  O     15.078779   15.440708   22.004714
  C     16.781216   16.011349   20.440323
  H     15.717017   14.390179   17.922479
  H     14.102992   15.053399   17.611126
  H     15.406413   16.143078   18.078786
  H     14.944109   14.713694   15.418350
  H     15.204333   16.431131   15.682726
  H     17.125917   17.601913   14.830754
  H     17.414997   19.282026   15.236544
  H     15.832782   18.568487   15.580445
  H     17.004394   19.952357   17.541588
  H     19.182647   18.011983   20.311591
  H     19.601031   16.282814   18.566724
  H     19.135579   13.988253   19.020011
  H     17.992722   12.308638   20.443397
  H     16.059744   12.996585   21.867094
  H     14.799378   14.666329   22.516092
  H     16.424029   17.035743   20.450536

 Total Charge           Charge          ....    0
 Multiplicity           Mult            ....    1
 Number of Electrons    NEL             ....  154
 Basis Dimension        Dim             ....  828

ORBITAL ENERGIES
----------------

  NO   OCC          E(Eh)            E(eV)
   0   2.0000     -91.891025     -2500.4819
   1   2.0000     -20.597556      -560.4880
   2   2.0000     -20.597408      -560.4840
   3   2.0000     -20.548893      -559.1638
   4   2.0000     -15.629411      -425.2979
   5   2.0000     -15.611039      -424.7980
   6   2.0000     -11.400307      -310.2181
   7   2.0000     -11.387045      -309.8572
   8   2.0000     -11.335676      -308.4594
   9   2.0000     -11.313924      -307.8675
  10   2.0000     -11.312851      -307.8383
  11   2.0000     -11.309287      -307.7414
  12   2.0000     -11.268892      -306.6422
  13   2.0000     -11.268447      -306.6300
  14   2.0000     -11.261081      -306.4296
  15   2.0000     -11.254151      -306.2410
  16   2.0000     -11.243689      -305.9563
  17   2.0000     -11.239244      -305.8354
  18   2.0000     -11.235638      -305.7373
  19   2.0000     -11.230203      -305.5894
  20   2.0000      -8.896121      -242.0758
  21   2.0000      -6.577707      -178.9885
  22   2.0000      -6.575684      -178.9334
  23   2.0000      -6.575104      -178.9177
  24   2.0000      -1.444625       -39.3103
  25   2.0000      -1.417228       -38.5647
  26   2.0000      -1.357297       -36.9339
  27   2.0000      -1.342596       -36.5339
  28   2.0000      -1.241120       -33.7726
  29   2.0000      -1.158526       -31.5251
  30   2.0000      -1.124689       -30.6044
  31   2.0000      -1.047004       -28.4904
  32   2.0000      -1.038226       -28.2516
  33   2.0000      -1.016958       -27.6728
  34   2.0000      -1.005959       -27.3735
  35   2.0000      -0.989918       -26.9370
  36   2.0000      -0.927894       -25.2493
  37   2.0000      -0.898118       -24.4390
  38   2.0000      -0.855284       -23.2735
  39   2.0000      -0.840968       -22.8839
  40   2.0000      -0.834204       -22.6998
  41   2.0000      -0.828541       -22.5458
  42   2.0000      -0.745331       -20.2815
  43   2.0000      -0.738001       -20.0820
  44   2.0000      -0.730280       -19.8719
  45   2.0000      -0.695228       -18.9181
  46   2.0000      -0.686704       -18.6862
  47   2.0000      -0.680665       -18.5218
  48   2.0000      -0.675285       -18.3754
  49   2.0000      -0.659974       -17.9588
  50   2.0000      -0.657227       -17.8840
  51   2.0000      -0.651202       -17.7201
  52   2.0000      -0.639835       -17.4108
  53   2.0000      -0.622438       -16.9374
  54   2.0000      -0.609981       -16.5984
  55   2.0000      -0.605472       -16.4757
  56   2.0000      -0.601568       -16.3695
  57   2.0000      -0.588411       -16.0115
  58   2.0000      -0.576415       -15.6851
  59   2.0000      -0.566116       -15.4048
  60   2.0000      -0.565611       -15.3910
  61   2.0000      -0.552657       -15.0386
  62   2.0000      -0.540145       -14.6981
  63   2.0000      -0.535156       -14.5623
  64   2.0000      -0.521272       -14.1845
  65   2.0000      -0.512993       -13.9593
  66   2.0000      -0.501064       -13.6346
  67   2.0000      -0.497382       -13.5344
  68   2.0000      -0.482961       -13.1420
  69   2.0000      -0.469646       -12.7797
  70   2.0000      -0.456759       -12.4290
  71   2.0000      -0.449674       -12.2363
  72   2.0000      -0.358525        -9.7560
  73   2.0000      -0.348206        -9.4752
  74   2.0000      -0.330517        -8.9938
  75   2.0000      -0.322717        -8.7816
  76   2.0000      -0.319539        -8.6951
  77   0.0000       0.078293         2.1305
  78   0.0000       0.107440         2.9236
  79   0.0000       0.114385         3.1126
  80   0.0000       0.130925         3.5626
  81   0.0000       0.131850         3.5878

MULLIKEN ATOMIC CHARGES
-----------------------
   0 C :   -0.336252
   1 C :    0.029239
   2 O :   -0.333321
   3 C :    0.437212
   4 O :   -0.386880
   5 C :   -0.246255
   6 C :    0.179184
   7 C :   -0.340265
   8 N :   -0.136345
   9 C :    0.197737
  10 S :   -0.438947
  11 N :   -0.219878
  12 C :    0.080814
  13 C :    0.022653
  14 C :   -0.212233
  15 C :   -0.135153
  16 C :   -0.278053
  17 C :    0.322373
  18 O :   -0.358184
  19 C :   -0.273501
  20 H :    0.130029
  21 H :    0.116802
  22 H :    0.110305
  23 H :    0.129633
  24 H :    0.086084
  25 H :    0.137608
  26 H :    0.139007
  27 H :    0.120784
  28 H :    0.197332
  29 H :    0.200979
  30 H :    0.165640
  31 H :    0.176323
  32 H :    0.164123
  33 H :    0.131727
  34 H :    0.240982
  35 H :    0.178696
Sum of atomic charges:   -0.0000000

LOEWDIN ATOMIC CHARGES
----------------------
   0 C :    0.104248
   1 C :   -0.018017
   2 O :    0.293087
   3 C :   -0.414596
   4 O :    0.122670
   5 C :   -0.081462
   6 C :   -0.089762
   7 C :    0.122661
   8 N :    0.403303
   9 C :   -0.459531
  10 S :   -0.036190
  11 N :    0.398119
  12 C :   -0.043150
  13 C :   -0.042597
  14 C :    0.019762
  15 C :    0.042138
  16 C :   -0.001550
  17 C :   -0.193189
  18 O :    0.395054
  19 C :    0.028586
  20 H :   -0.018178
  21 H :   -0.023857
  22 H :   -0.035059
  23 H :   -0.019068
  24 H :   -0.039379
  25 H :   -0.007745
  26 H :   -0.009389
  27 H :   -0.019230
  28 H :   -0.056830
  29 H :   -0.062994
  30 H :   -0.002189
  31 H :   -0.022351
  32 H :   -0.018959
  33 H :   -0.035067
  34 H :   -0.153593
  35 H :   -0.025696

  Mayer bond orders larger than 0.100000
B(  0-C ,  1-C ) :   0.9552 B(  0-C , 20-H ) :   0.9668 B(  0-C , 21-H ) :   0.9769
B(  0-C , 22-H ) :   0.9724 B(  1-C ,  2-O ) :   0.9030 B(  1-C , 23-H ) :   0.9824
B(  1-C , 24-H ) :   0.9734 B(  2-O ,  3-C ) :   1.1760 B(  3-C ,  4-O ) :   2.0753
B(  3-C ,  5-C ) :   0.9373 B(  5-C ,  6-C ) :   1.6778 B(  5-C , 12-C ) :   0.9531
B(  6-C ,  7-C ) :   0.9442 B(  6-C ,  8-N ) :   1.1168 B(  7-C , 25-H ) :   0.9770
B(  7-C , 26-H ) :   0.9708 B(  7-C , 27-H ) :   0.9660 B(  8-N ,  9-C ) :   1.1917
B(  8-N , 28-H ) :   0.9519 B(  9-C , 10-S ) :   1.6112 B(  9-C , 11-N ) :   1.2919
B( 11-N , 12-C ) :   0.9888 B( 11-N , 29-H ) :   0.9489 B( 12-C , 13-C ) :   0.9512
B( 12-C , 30-H ) :   0.9960 B( 13-C , 14-C ) :   1.3901 B( 13-C , 19-C ) :   1.3379
B( 14-C , 15-C ) :   1.3993 B( 14-C , 31-H ) :   0.9574 B( 15-C , 16-C ) :   1.3591
B( 15-C , 32-H ) :   0.9702 B( 16-C , 17-C ) :   1.3312 B( 16-C , 33-H ) :   0.9848
B( 17-C , 18-O ) :   1.1096 B( 17-C , 19-C ) :   1.3670 B( 18-O , 34-H ) :   0.9797
B( 19-C , 35-H ) :   0.9571

MP2 TOTAL ENERGY:    -1274.332002285 Eh
FINAL SINGLE POINT ENERGY     -1274.332002284736

DIPOLE MOMENT
-------------
                                X             Y             Z
Electronic contribution:      9.07906       6.46692       6.16901
Nuclear contribution   :    -10.63190      -7.42715      -6.75801
                        -----------------------------------------
Total Dipole Moment    :     -1.55284      -0.96023      -0.58900
                        -----------------------------------------
Magnitude (a.u.)       :      1.91840
Magnitude (Debye)      :      4.87619

Rotational constants in cm-1:     0.011649     0.009662     0.006748
Rotational constants in MHz :   349.234516   289.660884   202.304857

                             ****ORCA TERMINATED NORMALLY****
TOTAL RUN TIME: 0 days 1 hours 49 minutes 26 seconds 758 msec
