                         Program Version 4.2.0 -  RELEASE  -
|  1> ! ri-mp2 cc-pvtz cc-pvtz/c TightSCF  NoKeepInts
|  2>
|  3> %scf
|  4>   MaxCore 4096
|  5> end
|  6> *xyz  0  1
|  7>     C       14.3228917   15.3238075   16.7729545
|  8>     C       15.7371631   14.7486185   16.5907916
|  9>     O       16.5429318   15.7663504   15.9728194
| 10>     C       17.8295590   15.8826767   16.4048182
| 11>     O       18.5449973   14.8977931   16.4790186
| 12>     C       17.9628489   17.0080077   17.3830337
| 13>     C       17.3664015   18.2137149   17.2155037
| 14>     C       16.5279207   18.6620041   16.0370315
| 15>     N       17.5603014   19.2229603   18.1630133
| 16>     C       18.4230333   19.1417314   19.2249453
| 17>     S       18.6699913   20.4197141   20.2452403
| 18>     N       19.0713888   17.9441916   19.3998149
| 19>     C       18.8072278   16.7161352   18.6255322
| 20>     C       18.1201046   15.6688964   19.4972536
| 21>     C       18.6763189   14.3849695   19.6435209
| 22>     C       18.0314776   13.4099098   20.4228226
| 23>     C       16.8178371   13.7194997   21.0600346
| 24>     C       16.2581571   14.9957774   20.9130448
| 25>     O       15.0799236   15.2943658   21.5158592
| 26>     C       16.9025882   15.9643004   20.1374586
| 27>     H       14.3450143   16.2017525   17.4304987
| 28>     H       13.6605507   14.5756067   17.2251376
| 29>     H       13.8975708   15.6208793   15.8063318
| 30>     H       16.1387054   14.4723635   17.5763886
| 31>     H       15.7153023   13.8487986   15.9621938
| 32>     H       16.9378952   18.2805226   15.0935121
| 33>     H       16.4830712   19.7542911   15.9478923
| 34>     H       15.5004895   18.2886509   16.1288852
| 35>     H       17.0941779   20.1093618   18.0516975
| 36>     H       19.6786195   17.9031802   20.2083005
| 37>     H       19.7738862   16.3130053   18.2903729
| 38>     H       19.6036135   14.1363245   19.1329236
| 39>     H       18.4696653   12.4184312   20.5234396
| 40>     H       16.3151596   12.9680283   21.6598701
| 41>     H       14.8275401   14.5292891   22.0546069
| 42>     H       16.4526748   16.9460900   20.0374373
| 43> *
| 44>
| 45>                          ****END OF INPUT****

CARTESIAN COORDINATES (ANGSTROEM)
---------------------------------
  C     14.322892   15.323807   16.772955
  C     15.737163   14.748618   16.590792
  O     16.542932   15.766350   15.972819
  C     17.829559   15.882677   16.404818
  O     18.544997   14.897793   16.479019
  C     17.962849   17.008008   17.383034
  C     17.366401   18.213715   17.215504
  C     16.527921   18.662004   16.037032
  N     17.560301   19.222960   18.163013
  C     18.423033   19.141731   19.224945
  S     18.669991   20.419714   20.245240
  N     19.071389   17.944192   19.399815
  C     18.807228   16.716135   18.625532
  C     18.120105   15.668896   19.497254
  C     18.676319   14.384970   19.643521
  C     18.031478   13.409910   20.422823
  C     16.817837   13.719500   21.060035
  C     16.258157   14.995777   20.913045
  O     15.079924   15.294366   21.515859
  C     16.902588   15.964300   20.137459
  H     14.345014   16.201753   17.430499
  H     13.660551   14.575607   17.225138
  H     13.897571   15.620879   15.806332
  H     16.138705   14.472364   17.576389
  H     15.715302   13.848799   15.962194
  H     16.937895   18.280523   15.093512
  H     16.483071   19.754291   15.947892
  H     15.500489   18.288651   16.128885
  H     17.094178   20.109362   18.051697
  H     19.678619   17.903180   20.208300
  H     19.773886   16.313005   18.290373
  H     19.603614   14.136324   19.132924
  H     18.469665   12.418431   20.523440
  H     16.315160   12.968028   21.659870
  H     14.827540   14.529289   22.054607
  H     16.452675   16.946090   20.037437

 Total Charge           Charge          ....    0
 Multiplicity           Mult            ....    1
 Number of Electrons    NEL             ....  154
 Basis Dimension        Dim             ....  828

ORBITAL ENERGIES
----------------

  NO   OCC          E(Eh)            E(eV)
   0   2.0000     -91.888948     -2500.4254
   1   2.0000     -20.597802      -560.4947
   2   2.0000     -20.583250      -560.0987
   3   2.0000     -20.555962      -559.3562
   4   2.0000     -15.628131      -425.2631
   5   2.0000     -15.608901      -424.7398
   6   2.0000     -11.393638      -310.0366
   7   2.0000     -11.384638      -309.7918
   8   2.0000     -11.331765      -308.3530
   9   2.0000     -11.314126      -307.8730
  10   2.0000     -11.309841      -307.7564
  11   2.0000     -11.297159      -307.4113
  12   2.0000     -11.260205      -306.4058
  13   2.0000     -11.259521      -306.3871
  14   2.0000     -11.259285      -306.3807
  15   2.0000     -11.254245      -306.2436
  16   2.0000     -11.243935      -305.9630
  17   2.0000     -11.239537      -305.8434
  18   2.0000     -11.236945      -305.7728
  19   2.0000     -11.231183      -305.6160
  20   2.0000      -8.894030      -242.0189
  21   2.0000      -6.575609      -178.9314
  22   2.0000      -6.573598      -178.8767
  23   2.0000      -6.573016      -178.8608
  24   2.0000      -1.453364       -39.5480
  25   2.0000      -1.417583       -38.5744
  26   2.0000      -1.356147       -36.9026
  27   2.0000      -1.339491       -36.4494
  28   2.0000      -1.238108       -33.6906
  29   2.0000      -1.158144       -31.5147
  30   2.0000      -1.121998       -30.5311
  31   2.0000      -1.045930       -28.4612
  32   2.0000      -1.034824       -28.1590
  33   2.0000      -1.015559       -27.6348
  34   2.0000      -0.999902       -27.2087
  35   2.0000      -0.985694       -26.8221
  36   2.0000      -0.924217       -25.1492
  37   2.0000      -0.883040       -24.0287
  38   2.0000      -0.848069       -23.0771
  39   2.0000      -0.839451       -22.8426
  40   2.0000      -0.834115       -22.6974
  41   2.0000      -0.824699       -22.4412
  42   2.0000      -0.757166       -20.6035
  43   2.0000      -0.735993       -20.0274
  44   2.0000      -0.729262       -19.8442
  45   2.0000      -0.695818       -18.9342
  46   2.0000      -0.685915       -18.6647
  47   2.0000      -0.681260       -18.5380
  48   2.0000      -0.676219       -18.4009
  49   2.0000      -0.657075       -17.8799
  50   2.0000      -0.654232       -17.8025
  51   2.0000      -0.644357       -17.5338
  52   2.0000      -0.636800       -17.3282
  53   2.0000      -0.606598       -16.5064
  54   2.0000      -0.605473       -16.4758
  55   2.0000      -0.602489       -16.3946
  56   2.0000      -0.600603       -16.3432
  57   2.0000      -0.578221       -15.7342
  58   2.0000      -0.575352       -15.6561
  59   2.0000      -0.568091       -15.4585
  60   2.0000      -0.559463       -15.2238
  61   2.0000      -0.550482       -14.9794
  62   2.0000      -0.545228       -14.8364
  63   2.0000      -0.523266       -14.2388
  64   2.0000      -0.513974       -13.9859
  65   2.0000      -0.508457       -13.8358
  66   2.0000      -0.507309       -13.8046
  67   2.0000      -0.499202       -13.5840
  68   2.0000      -0.482790       -13.1374
  69   2.0000      -0.466087       -12.6829
  70   2.0000      -0.455990       -12.4081
  71   2.0000      -0.453691       -12.3456
  72   2.0000      -0.354263        -9.6400
  73   2.0000      -0.349628        -9.5139
  74   2.0000      -0.328395        -8.9361
  75   2.0000      -0.321455        -8.7472
  76   2.0000      -0.315718        -8.5911
  77   0.0000       0.070946         1.9305
  78   0.0000       0.102391         2.7862
  79   0.0000       0.118485         3.2241
  80   0.0000       0.130042         3.5386
  81   0.0000       0.135772         3.6945

MULLIKEN ATOMIC CHARGES
-----------------------
   0 C :   -0.288016
   1 C :    0.045511
   2 O :   -0.374047
   3 C :    0.443476
   4 O :   -0.394810
   5 C :   -0.189401
   6 C :    0.130688
   7 C :   -0.282499
   8 N :   -0.125579
   9 C :    0.204066
  10 S :   -0.440162
  11 N :   -0.201579
  12 C :    0.061140
  13 C :    0.020947
  14 C :   -0.147537
  15 C :   -0.135329
  16 C :   -0.279065
  17 C :    0.312000
  18 O :   -0.359947
  19 C :   -0.275489
  20 H :    0.094909
  21 H :    0.106004
  22 H :    0.100087
  23 H :    0.099257
  24 H :    0.111145
  25 H :    0.122937
  26 H :    0.106662
  27 H :    0.125334
  28 H :    0.197205
  29 H :    0.194287
  30 H :    0.155436
  31 H :    0.156566
  32 H :    0.161535
  33 H :    0.131906
  34 H :    0.241447
  35 H :    0.170918
Sum of atomic charges:   -0.0000000

LOEWDIN ATOMIC CHARGES
----------------------
   0 C :    0.106355
   1 C :   -0.013935
   2 O :    0.290004
   3 C :   -0.419370
   4 O :    0.130469
   5 C :   -0.093808
   6 C :   -0.077709
   7 C :    0.126838
   8 N :    0.403795
   9 C :   -0.456907
  10 S :   -0.036661
  11 N :    0.396904
  12 C :   -0.044990
  13 C :   -0.042289
  14 C :    0.021548
  15 C :    0.042441
  16 C :   -0.002024
  17 C :   -0.194918
  18 O :    0.393960
  19 C :    0.028121
  20 H :   -0.029517
  21 H :   -0.022758
  22 H :   -0.028209
  23 H :   -0.025840
  24 H :   -0.028592
  25 H :   -0.008006
  26 H :   -0.019093
  27 H :   -0.010774
  28 H :   -0.058735
  29 H :   -0.064212
  30 H :   -0.004552
  31 H :   -0.024288
  32 H :   -0.019814
  33 H :   -0.035193
  34 H :   -0.153652
  35 H :   -0.024590

  Mayer bond orders larger than 0.100000
B(  0-C ,  1-C ) :   0.9712 B(  0-C , 20-H ) :   0.9762 B(  0-C , 21-H ) :   0.9784
B(  0-C , 22-H ) :   0.9768 B(  1-C ,  2-O ) :   0.8909 B(  1-C , 23-H ) :   0.9661
B(  1-C , 24-H ) :   0.9856 B(  2-O ,  3-C ) :   1.0896 B(  3-C ,  4-O ) :   2.0318
B(  3-C ,  5-C ) :   1.0211 B(  5-C ,  6-C ) :   1.6729 B(  5-C , 12-C ) :   0.9633
B(  6-C ,  7-C ) :   0.9528 B(  6-C ,  8-N ) :   1.1363 B(  7-C , 25-H ) :   0.9716
B(  7-C , 26-H ) :   0.9877 B(  7-C , 27-H ) :   0.9625 B(  8-N ,  9-C ) :   1.1864
B(  8-N , 28-H ) :   0.9501 B(  9-C , 10-S ) :   1.6105 B(  9-C , 11-N ) :   1.2984
B( 11-N , 12-C ) :   0.9937 B( 11-N , 29-H ) :   0.9517 B( 12-C , 13-C ) :   0.9433
B( 12-C , 30-H ) :   0.9977 B( 13-C , 14-C ) :   1.3799 B( 13-C , 19-C ) :   1.3688
B( 14-C , 15-C ) :   1.3936 B( 14-C , 31-H ) :   0.9639 B( 15-C , 16-C ) :   1.3641
B( 15-C , 32-H ) :   0.9710 B( 16-C , 17-C ) :   1.3297 B( 16-C , 33-H ) :   0.9846
B( 17-C , 18-O ) :   1.1094 B( 17-C , 19-C ) :   1.3732 B( 18-O , 34-H ) :   0.9797
B( 19-C , 35-H ) :   0.9573

MP2 TOTAL ENERGY:    -1274.323369053 Eh
FINAL SINGLE POINT ENERGY     -1274.323369052683

DIPOLE MOMENT
-------------
                                X             Y             Z
Electronic contribution:     11.39685       7.73839       6.43555
Nuclear contribution   :    -12.64696      -9.03686      -6.98320
                        -----------------------------------------
Total Dipole Moment    :     -1.25011      -1.29847      -0.54765
                        -----------------------------------------
Magnitude (a.u.)       :      1.88381
Magnitude (Debye)      :      4.78826

Rotational constants in cm-1:     0.011903     0.009203     0.006921
Rotational constants in MHz :   356.841352   275.895349   207.484947

                             ****ORCA TERMINATED NORMALLY****
TOTAL RUN TIME: 0 days 1 hours 54 minutes 18 seconds 566 msec
