                         Program Version 4.2.0 -  RELEASE  -
|  1> ! ri-mp2 cc-pvtz cc-pvtz/c TightSCF  NoKeepInts
|  2>
|  3> %scf
|  4>   MaxCore 4096
|  5> end
|  6> *xyz  0  1
|  7>     C       15.3095804   13.6654993   15.8004819
|  8>     C       15.8454409   14.5399417   16.9463074
|  9>     O       16.9629270   15.2889083   16.4341037
| 10>     C       16.8270725   16.6432187   16.3469955
| 11>     O       15.9308368   17.1250063   15.6770760
| 12>     C       17.5388465   17.3862722   17.4466051
| 13>     C       17.3877621   18.7230106   17.6353469
| 14>     C       16.4977552   19.6680126   16.8561912
| 15>     N       18.1388013   19.3818940   18.6135713
| 16>     C       19.1692911   18.8186386   19.3175985
| 17>     S       20.1087868   19.7013598   20.3538620
| 18>     N       19.3923392   17.4820056   19.1074070
| 19>     C       18.5040157   16.5891265   18.3421409
| 20>     C       17.7862116   15.6549764   19.3111115
| 21>     C       18.2479589   14.3376545   19.4929977
| 22>     C       17.5945215   13.4670871   20.3813833
| 23>     C       16.4736877   13.9186434   21.0986753
| 24>     C       16.0186090   15.2333311   20.9295747
| 25>     O       14.9384803   15.6734690   21.6222478
| 26>     C       16.6697776   16.0972314   20.0437643
| 27>     H       14.9647408   14.2929271   14.9685430
| 28>     H       14.4652128   13.0555235   16.1432608
| 29>     H       16.0921209   12.9938250   15.4265620
| 30>     H       15.0531353   15.2026527   17.3219451
| 31>     H       16.1710106   13.8921620   17.7692995
| 32>     H       15.4446983   19.3746310   16.9542346
| 33>     H       16.7462882   19.6400973   15.7875474
| 34>     H       16.5831984   20.7097335   17.1869260
| 35>     H       17.9939620   20.3662397   18.7725803
| 36>     H       20.1410269   17.0885934   19.6628295
| 37>     H       19.1367130   15.9786095   17.6822034
| 38>     H       19.1138456   13.9851237   18.9385470
| 39>     H       17.9581098   12.4492303   20.5134870
| 40>     H       15.9665491   13.2502991   21.7870551
| 41>     H       14.6669970   14.9633957   22.2235246
| 42>     H       16.3066893   17.1136692   19.9380128
| 43> *
| 44>
| 45>                          ****END OF INPUT****

CARTESIAN COORDINATES (ANGSTROEM)
---------------------------------
  C     15.309580   13.665499   15.800482
  C     15.845441   14.539942   16.946307
  O     16.962927   15.288908   16.434104
  C     16.827072   16.643219   16.346995
  O     15.930837   17.125006   15.677076
  C     17.538846   17.386272   17.446605
  C     17.387762   18.723011   17.635347
  C     16.497755   19.668013   16.856191
  N     18.138801   19.381894   18.613571
  C     19.169291   18.818639   19.317598
  S     20.108787   19.701360   20.353862
  N     19.392339   17.482006   19.107407
  C     18.504016   16.589126   18.342141
  C     17.786212   15.654976   19.311111
  C     18.247959   14.337654   19.492998
  C     17.594521   13.467087   20.381383
  C     16.473688   13.918643   21.098675
  C     16.018609   15.233331   20.929575
  O     14.938480   15.673469   21.622248
  C     16.669778   16.097231   20.043764
  H     14.964741   14.292927   14.968543
  H     14.465213   13.055523   16.143261
  H     16.092121   12.993825   15.426562
  H     15.053135   15.202653   17.321945
  H     16.171011   13.892162   17.769299
  H     15.444698   19.374631   16.954235
  H     16.746288   19.640097   15.787547
  H     16.583198   20.709733   17.186926
  H     17.993962   20.366240   18.772580
  H     20.141027   17.088593   19.662830
  H     19.136713   15.978609   17.682203
  H     19.113846   13.985124   18.938547
  H     17.958110   12.449230   20.513487
  H     15.966549   13.250299   21.787055
  H     14.666997   14.963396   22.223525
  H     16.306689   17.113669   19.938013

 Total Charge           Charge          ....    0
 Multiplicity           Mult            ....    1
 Number of Electrons    NEL             ....  154
 Basis Dimension        Dim             ....  828

ORBITAL ENERGIES
----------------

  NO   OCC          E(Eh)            E(eV)
   0   2.0000     -91.890555     -2500.4691
   1   2.0000     -20.601823      -560.6041
   2   2.0000     -20.583099      -560.0946
   3   2.0000     -20.546985      -559.1119
   4   2.0000     -15.631192      -425.3464
   5   2.0000     -15.609833      -424.7652
   6   2.0000     -11.393540      -310.0340
   7   2.0000     -11.385426      -309.8132
   8   2.0000     -11.337892      -308.5197
   9   2.0000     -11.319520      -308.0198
  10   2.0000     -11.311721      -307.8076
  11   2.0000     -11.293152      -307.3023
  12   2.0000     -11.264317      -306.5176
  13   2.0000     -11.260880      -306.4241
  14   2.0000     -11.259982      -306.3997
  15   2.0000     -11.253752      -306.2302
  16   2.0000     -11.248260      -306.0807
  17   2.0000     -11.242913      -305.9352
  18   2.0000     -11.242856      -305.9337
  19   2.0000     -11.218770      -305.2783
  20   2.0000      -8.895599      -242.0616
  21   2.0000      -6.577169      -178.9739
  22   2.0000      -6.575169      -178.9194
  23   2.0000      -6.574577      -178.9033
  24   2.0000      -1.448883       -39.4261
  25   2.0000      -1.421466       -38.6801
  26   2.0000      -1.352365       -36.7997
  27   2.0000      -1.342252       -36.5245
  28   2.0000      -1.240788       -33.7635
  29   2.0000      -1.162236       -31.6260
  30   2.0000      -1.121717       -30.5235
  31   2.0000      -1.046136       -28.4668
  32   2.0000      -1.031633       -28.0722
  33   2.0000      -1.020479       -27.7687
  34   2.0000      -0.997503       -27.1434
  35   2.0000      -0.985585       -26.8191
  36   2.0000      -0.925507       -25.1843
  37   2.0000      -0.879917       -23.9438
  38   2.0000      -0.849764       -23.1233
  39   2.0000      -0.842427       -22.9236
  40   2.0000      -0.838364       -22.8130
  41   2.0000      -0.827287       -22.5116
  42   2.0000      -0.758988       -20.6531
  43   2.0000      -0.735885       -20.0244
  44   2.0000      -0.723584       -19.6897
  45   2.0000      -0.700801       -19.0698
  46   2.0000      -0.691272       -18.8105
  47   2.0000      -0.678356       -18.4590
  48   2.0000      -0.671140       -18.2626
  49   2.0000      -0.657002       -17.8779
  50   2.0000      -0.648846       -17.6560
  51   2.0000      -0.645936       -17.5768
  52   2.0000      -0.634548       -17.2669
  53   2.0000      -0.612849       -16.6765
  54   2.0000      -0.607434       -16.5291
  55   2.0000      -0.602147       -16.3853
  56   2.0000      -0.599298       -16.3077
  57   2.0000      -0.582453       -15.8494
  58   2.0000      -0.573627       -15.6092
  59   2.0000      -0.568606       -15.4726
  60   2.0000      -0.566236       -15.4081
  61   2.0000      -0.539400       -14.6778
  62   2.0000      -0.534731       -14.5508
  63   2.0000      -0.529716       -14.4143
  64   2.0000      -0.516571       -14.0566
  65   2.0000      -0.509866       -13.8742
  66   2.0000      -0.504602       -13.7309
  67   2.0000      -0.496626       -13.5139
  68   2.0000      -0.489581       -13.3222
  69   2.0000      -0.464369       -12.6361
  70   2.0000      -0.452188       -12.3047
  71   2.0000      -0.444897       -12.1063
  72   2.0000      -0.356877        -9.7111
  73   2.0000      -0.354667        -9.6510
  74   2.0000      -0.330753        -9.0002
  75   2.0000      -0.326478        -8.8839
  76   2.0000      -0.317990        -8.6530
  77   0.0000       0.069630         1.8947
  78   0.0000       0.101300         2.7565
  79   0.0000       0.122076         3.3219
  80   0.0000       0.128446         3.4952
  81   0.0000       0.132243         3.5985

MULLIKEN ATOMIC CHARGES
-----------------------
   0 C :   -0.262011
   1 C :    0.025654
   2 O :   -0.386247
   3 C :    0.488629
   4 O :   -0.413094
   5 C :   -0.272046
   6 C :    0.162047
   7 C :   -0.268551
   8 N :   -0.123760
   9 C :    0.216068
  10 S :   -0.439028
  11 N :   -0.207789
  12 C :    0.064712
  13 C :    0.033248
  14 C :   -0.183902
  15 C :   -0.136964
  16 C :   -0.272644
  17 C :    0.301605
  18 O :   -0.355722
  19 C :   -0.229807
  20 H :    0.109032
  21 H :    0.085409
  22 H :    0.091195
  23 H :    0.095685
  24 H :    0.119718
  25 H :    0.130527
  26 H :    0.132569
  27 H :    0.095435
  28 H :    0.197961
  29 H :    0.194387
  30 H :    0.149716
  31 H :    0.150161
  32 H :    0.163711
  33 H :    0.133506
  34 H :    0.242078
  35 H :    0.168508
Sum of atomic charges:   -0.0000000

LOEWDIN ATOMIC CHARGES
----------------------
   0 C :    0.105694
   1 C :   -0.017502
   2 O :    0.291323
   3 C :   -0.421016
   4 O :    0.114531
   5 C :   -0.098395
   6 C :   -0.057740
   7 C :    0.131284
   8 N :    0.407392
   9 C :   -0.455508
  10 S :   -0.033942
  11 N :    0.396026
  12 C :   -0.052850
  13 C :   -0.035896
  14 C :    0.012108
  15 C :    0.040987
  16 C :   -0.001985
  17 C :   -0.189644
  18 O :    0.396412
  19 C :    0.032044
  20 H :   -0.023489
  21 H :   -0.029713
  22 H :   -0.028581
  23 H :   -0.029698
  24 H :   -0.028089
  25 H :   -0.005158
  26 H :   -0.003346
  27 H :   -0.023140
  28 H :   -0.057264
  29 H :   -0.065407
  30 H :   -0.008061
  31 H :   -0.029615
  32 H :   -0.019784
  33 H :   -0.034495
  34 H :   -0.152496
  35 H :   -0.024989

  Mayer bond orders larger than 0.100000
B(  0-C ,  1-C ) :   0.9862 B(  0-C , 20-H ) :   0.9779 B(  0-C , 21-H ) :   0.9779
B(  0-C , 22-H ) :   0.9792 B(  1-C ,  2-O ) :   0.8674 B(  1-C , 23-H ) :   0.9700
B(  1-C , 24-H ) :   0.9706 B(  2-O ,  3-C ) :   1.0970 B(  3-C ,  4-O ) :   1.9971
B(  3-C ,  5-C ) :   1.0779 B(  5-C ,  6-C ) :   1.6445 B(  5-C , 12-C ) :   0.9701
B(  6-C ,  7-C ) :   0.9676 B(  6-C ,  8-N ) :   1.1608 B(  7-C , 25-H ) :   0.9607
B(  7-C , 26-H ) :   0.9592 B(  7-C , 27-H ) :   0.9901 B(  8-N ,  9-C ) :   1.1817
B(  8-N , 28-H ) :   0.9476 B(  9-C , 10-S ) :   1.6059 B(  9-C , 11-N ) :   1.3073
B( 11-N , 12-C ) :   0.9657 B( 11-N , 29-H ) :   0.9524 B( 12-C , 13-C ) :   0.9480
B( 12-C , 30-H ) :   1.0019 B( 13-C , 14-C ) :   1.3506 B( 13-C , 19-C ) :   1.3688
B( 14-C , 15-C ) :   1.3948 B( 14-C , 31-H ) :   0.9741 B( 15-C , 16-C ) :   1.3616
B( 15-C , 32-H ) :   0.9700 B( 16-C , 17-C ) :   1.3303 B( 16-C , 33-H ) :   0.9838
B( 17-C , 18-O ) :   1.1144 B( 17-C , 19-C ) :   1.3750 B( 18-O , 34-H ) :   0.9787
B( 19-C , 35-H ) :   0.9585

MP2 TOTAL ENERGY:    -1274.331465941 Eh
FINAL SINGLE POINT ENERGY     -1274.331465941375

DIPOLE MOMENT
-------------
                                X             Y             Z
Electronic contribution:      9.99170      10.19346       7.27914
Nuclear contribution   :    -10.94177     -11.67409      -7.14875
                        -----------------------------------------
Total Dipole Moment    :     -0.95007      -1.48063       0.13039
                        -----------------------------------------
Magnitude (a.u.)       :      1.76406
Magnitude (Debye)      :      4.48388

Rotational constants in cm-1:     0.012252     0.008752     0.006309
Rotational constants in MHz :   367.292409   262.381865   189.147814

                             ****ORCA TERMINATED NORMALLY****
TOTAL RUN TIME: 0 days 1 hours 44 minutes 18 seconds 618 msec
