                         Program Version 4.2.0 -  RELEASE  -
|  1> ! ri-mp2 cc-pvtz cc-pvtz/c TightSCF  NoKeepInts
|  2>
|  3> %scf
|  4>   MaxCore 4096
|  5> end
|  6> *xyz  0  1
|  7>     C       15.1867494   13.8218128   15.7849018
|  8>     C       15.9155378   14.4807867   16.9690994
|  9>     O       17.0177656   15.2441548   16.4453747
| 10>     C       16.8614004   16.5960423   16.3478429
| 11>     O       15.9622078   17.0634326   15.6718245
| 12>     C       17.5629044   17.3559904   17.4426933
| 13>     C       17.4041344   18.6941479   17.6140182
| 14>     C       16.5169484   19.6255187   16.8154804
| 15>     N       18.1432264   19.3682336   18.5909896
| 16>     C       19.1675230   18.8175294   19.3137354
| 17>     S       20.0916872   19.7164720   20.3498188
| 18>     N       19.3973496   17.4790730   19.1233869
| 19>     C       18.5227499   16.5737023   18.3569622
| 20>     C       17.7968301   15.6457595   19.3260439
| 21>     C       18.2431088   14.3227955   19.5051803
| 22>     C       17.5795961   13.4581674   20.3918741
| 23>     C       16.4642991   13.9214310   21.1103207
| 24>     C       16.0247057   15.2417357   20.9440207
| 25>     O       14.9498682   15.6931355   21.6376589
| 26>     C       16.6858229   16.0995927   20.0597242
| 27>     H       14.7739092   14.5844497   15.1122146
| 28>     H       14.3595806   13.1963736   16.1413561
| 29>     H       15.8745871   13.1898625   15.2097271
| 30>     H       15.2262504   15.1135001   17.5455532
| 31>     H       16.2942934   13.6930030   17.6321843
| 32>     H       15.4639015   19.3315527   16.9120135
| 33>     H       16.7715767   19.5818131   15.7488103
| 34>     H       16.5986658   20.6723253   17.1307250
| 35>     H       17.9930773   20.3539355   18.7360950
| 36>     H       20.1408254   17.0952889   19.6924059
| 37>     H       19.1666722   15.9603545   17.7106755
| 38>     H       19.1045864   13.9612087   18.9496649
| 39>     H       17.9312861   12.4358813   20.5220193
| 40>     H       15.9494467   13.2577560   21.7974982
| 41>     H       14.6694376   14.9848486   22.2369138
| 42>     H       16.3344883   17.1203330   19.9551924
| 43> *
| 44>
| 45>                          ****END OF INPUT****

CARTESIAN COORDINATES (ANGSTROEM)
---------------------------------
  C     15.186749   13.821813   15.784902
  C     15.915538   14.480787   16.969099
  O     17.017766   15.244155   16.445375
  C     16.861400   16.596042   16.347843
  O     15.962208   17.063433   15.671824
  C     17.562904   17.355990   17.442693
  C     17.404134   18.694148   17.614018
  C     16.516948   19.625519   16.815480
  N     18.143226   19.368234   18.590990
  C     19.167523   18.817529   19.313735
  S     20.091687   19.716472   20.349819
  N     19.397350   17.479073   19.123387
  C     18.522750   16.573702   18.356962
  C     17.796830   15.645759   19.326044
  C     18.243109   14.322795   19.505180
  C     17.579596   13.458167   20.391874
  C     16.464299   13.921431   21.110321
  C     16.024706   15.241736   20.944021
  O     14.949868   15.693135   21.637659
  C     16.685823   16.099593   20.059724
  H     14.773909   14.584450   15.112215
  H     14.359581   13.196374   16.141356
  H     15.874587   13.189863   15.209727
  H     15.226250   15.113500   17.545553
  H     16.294293   13.693003   17.632184
  H     15.463902   19.331553   16.912014
  H     16.771577   19.581813   15.748810
  H     16.598666   20.672325   17.130725
  H     17.993077   20.353935   18.736095
  H     20.140825   17.095289   19.692406
  H     19.166672   15.960354   17.710676
  H     19.104586   13.961209   18.949665
  H     17.931286   12.435881   20.522019
  H     15.949447   13.257756   21.797498
  H     14.669438   14.984849   22.236914
  H     16.334488   17.120333   19.955192

 Total Charge           Charge          ....    0
 Multiplicity           Mult            ....    1
 Number of Electrons    NEL             ....  154
 Basis Dimension        Dim             ....  828

ORBITAL ENERGIES
----------------

  NO   OCC          E(Eh)            E(eV)
   0   2.0000     -91.890594     -2500.4702
   1   2.0000     -20.601673      -560.6000
   2   2.0000     -20.582901      -560.0892
   3   2.0000     -20.547463      -559.1249
   4   2.0000     -15.631241      -425.3477
   5   2.0000     -15.609858      -424.7658
   6   2.0000     -11.393930      -310.0446
   7   2.0000     -11.385470      -309.8144
   8   2.0000     -11.337944      -308.5211
   9   2.0000     -11.319283      -308.0134
  10   2.0000     -11.311689      -307.8067
  11   2.0000     -11.293931      -307.3235
  12   2.0000     -11.264187      -306.5141
  13   2.0000     -11.260609      -306.4167
  14   2.0000     -11.260005      -306.4003
  15   2.0000     -11.253837      -306.2325
  16   2.0000     -11.248170      -306.0783
  17   2.0000     -11.242867      -305.9340
  18   2.0000     -11.242804      -305.9323
  19   2.0000     -11.216672      -305.2212
  20   2.0000      -8.895639      -242.0626
  21   2.0000      -6.577208      -178.9749
  22   2.0000      -6.575209      -178.9205
  23   2.0000      -6.574617      -178.9044
  24   2.0000      -1.448761       -39.4228
  25   2.0000      -1.421334       -38.6765
  26   2.0000      -1.352866       -36.8133
  27   2.0000      -1.342285       -36.5254
  28   2.0000      -1.240793       -33.7637
  29   2.0000      -1.162125       -31.6230
  30   2.0000      -1.121710       -30.5233
  31   2.0000      -1.046088       -28.4655
  32   2.0000      -1.030645       -28.0453
  33   2.0000      -1.020385       -27.7661
  34   2.0000      -0.997311       -27.1382
  35   2.0000      -0.985575       -26.8189
  36   2.0000      -0.925474       -25.1834
  37   2.0000      -0.880806       -23.9679
  38   2.0000      -0.849823       -23.1249
  39   2.0000      -0.842467       -22.9247
  40   2.0000      -0.838407       -22.8142
  41   2.0000      -0.827288       -22.5117
  42   2.0000      -0.757452       -20.6113
  43   2.0000      -0.735596       -20.0166
  44   2.0000      -0.722638       -19.6640
  45   2.0000      -0.700644       -19.0655
  46   2.0000      -0.691325       -18.8119
  47   2.0000      -0.678891       -18.4736
  48   2.0000      -0.670716       -18.2511
  49   2.0000      -0.657844       -17.9008
  50   2.0000      -0.648836       -17.6557
  51   2.0000      -0.646937       -17.6040
  52   2.0000      -0.636092       -17.3089
  53   2.0000      -0.612551       -16.6684
  54   2.0000      -0.605879       -16.4868
  55   2.0000      -0.601810       -16.3761
  56   2.0000      -0.593862       -16.1598
  57   2.0000      -0.582985       -15.8638
  58   2.0000      -0.575493       -15.6600
  59   2.0000      -0.571042       -15.5389
  60   2.0000      -0.566093       -15.4042
  61   2.0000      -0.539611       -14.6836
  62   2.0000      -0.534949       -14.5567
  63   2.0000      -0.529363       -14.4047
  64   2.0000      -0.516638       -14.0584
  65   2.0000      -0.509701       -13.8697
  66   2.0000      -0.504463       -13.7271
  67   2.0000      -0.497062       -13.5257
  68   2.0000      -0.488907       -13.3038
  69   2.0000      -0.464143       -12.6300
  70   2.0000      -0.452978       -12.3261
  71   2.0000      -0.443534       -12.0692
  72   2.0000      -0.356843        -9.7102
  73   2.0000      -0.354424        -9.6444
  74   2.0000      -0.330627        -8.9968
  75   2.0000      -0.326303        -8.8791
  76   2.0000      -0.317991        -8.6530
  77   0.0000       0.069615         1.8943
  78   0.0000       0.100632         2.7383
  79   0.0000       0.122125         3.3232
  80   0.0000       0.128782         3.5043
  81   0.0000       0.132561         3.6072

MULLIKEN ATOMIC CHARGES
-----------------------
   0 C :   -0.264359
   1 C :    0.022476
   2 O :   -0.385782
   3 C :    0.487326
   4 O :   -0.413621
   5 C :   -0.264849
   6 C :    0.162150
   7 C :   -0.269188
   8 N :   -0.123488
   9 C :    0.215499
  10 S :   -0.438783
  11 N :   -0.206860
  12 C :    0.063306
  13 C :    0.064971
  14 C :   -0.201167
  15 C :   -0.131910
  16 C :   -0.274042
  17 C :    0.313383
  18 O :   -0.356096
  19 C :   -0.261549
  20 H :    0.112907
  21 H :    0.085510
  22 H :    0.091145
  23 H :    0.095966
  24 H :    0.116559
  25 H :    0.130619
  26 H :    0.132323
  27 H :    0.095519
  28 H :    0.197919
  29 H :    0.194422
  30 H :    0.150314
  31 H :    0.149655
  32 H :    0.165161
  33 H :    0.133340
  34 H :    0.242058
  35 H :    0.169168
Sum of atomic charges:   -0.0000000

LOEWDIN ATOMIC CHARGES
----------------------
   0 C :    0.105208
   1 C :   -0.018917
   2 O :    0.289874
   3 C :   -0.419708
   4 O :    0.116325
   5 C :   -0.098307
   6 C :   -0.057725
   7 C :    0.131268
   8 N :    0.407317
   9 C :   -0.455732
  10 S :   -0.033836
  11 N :    0.396062
  12 C :   -0.052767
  13 C :   -0.035658
  14 C :    0.013488
  15 C :    0.041052
  16 C :   -0.001732
  17 C :   -0.190007
  18 O :    0.396310
  19 C :    0.031868
  20 H :   -0.024435
  21 H :   -0.030626
  22 H :   -0.028515
  23 H :   -0.030392
  24 H :   -0.026510
  25 H :   -0.005115
  26 H :   -0.003402
  27 H :   -0.023123
  28 H :   -0.057256
  29 H :   -0.065280
  30 H :   -0.008167
  31 H :   -0.029582
  32 H :   -0.019973
  33 H :   -0.034514
  34 H :   -0.152549
  35 H :   -0.024946

  Mayer bond orders larger than 0.100000
B(  0-C ,  1-C ) :   0.9853 B(  0-C , 20-H ) :   0.9755 B(  0-C , 21-H ) :   0.9782
B(  0-C , 22-H ) :   0.9789 B(  1-C ,  2-O ) :   0.8692 B(  1-C , 23-H ) :   0.9685
B(  1-C , 24-H ) :   0.9733 B(  2-O ,  3-C ) :   1.0929 B(  3-C ,  4-O ) :   1.9928
B(  3-C ,  5-C ) :   1.0795 B(  5-C ,  6-C ) :   1.6443 B(  5-C , 12-C ) :   0.9703
B(  6-C ,  7-C ) :   0.9675 B(  6-C ,  8-N ) :   1.1612 B(  7-C , 25-H ) :   0.9604
B(  7-C , 26-H ) :   0.9594 B(  7-C , 27-H ) :   0.9902 B(  8-N ,  9-C ) :   1.1813
B(  8-N , 28-H ) :   0.9476 B(  9-C , 10-S ) :   1.6067 B(  9-C , 11-N ) :   1.3071
B( 11-N , 12-C ) :   0.9674 B( 11-N , 29-H ) :   0.9523 B( 12-C , 13-C ) :   0.9463
B( 12-C , 30-H ) :   1.0016 B( 13-C , 14-C ) :   1.3493 B( 13-C , 19-C ) :   1.3627
B( 14-C , 15-C ) :   1.3905 B( 14-C , 31-H ) :   0.9755 B( 15-C , 16-C ) :   1.3621
B( 15-C , 32-H ) :   0.9691 B( 16-C , 17-C ) :   1.3308 B( 16-C , 33-H ) :   0.9838
B( 17-C , 18-O ) :   1.1137 B( 17-C , 19-C ) :   1.3700 B( 18-O , 34-H ) :   0.9788
B( 19-C , 35-H ) :   0.9591

MP2 TOTAL ENERGY:    -1274.331494885 Eh
FINAL SINGLE POINT ENERGY     -1274.331494884947

DIPOLE MOMENT
-------------
                                X             Y             Z
Electronic contribution:     10.23016       9.92589       7.33548
Nuclear contribution   :    -11.17133     -11.40762      -7.21334
                        -----------------------------------------
Total Dipole Moment    :     -0.94117      -1.48173       0.12214
                        -----------------------------------------
Magnitude (a.u.)       :      1.75961
Magnitude (Debye)      :      4.47258

Rotational constants in cm-1:     0.012233     0.008807     0.006317
Rotational constants in MHz :   366.743729   264.033028   189.391871

                             ****ORCA TERMINATED NORMALLY****
TOTAL RUN TIME: 0 days 1 hours 44 minutes 34 seconds 704 msec
