                         Program Version 4.2.0 -  RELEASE  -
|  1> ! ri-mp2 cc-pvtz cc-pvtz/c TightSCF  NoKeepInts
|  2>
|  3> %scf
|  4>   MaxCore 4096
|  5> end
|  6> *xyz  0  1
|  7>     C       15.4788581   13.3818265   16.0264833
|  8>     C       16.1991673   14.4707376   16.8377839
|  9>     O       16.7434325   15.4054522   15.8944508
| 10>     C       16.6992358   16.7576474   16.1009209
| 11>     O       16.1678517   17.4513034   15.2547788
| 12>     C       17.4121652   17.3217626   17.3101747
| 13>     C       17.3599471   18.6494341   17.6061269
| 14>     C       16.5314786   19.7200942   16.9277270
| 15>     N       18.1870146   19.1768083   18.6044435
| 16>     C       19.2729620   18.5224709   19.1237747
| 17>     S       20.3801993   19.2779962   20.0927856
| 18>     N       19.4062149   17.2048926   18.7668492
| 19>     C       18.3218630   16.4136033   18.1597316
| 20>     C       17.5969705   15.6799137   19.2892889
| 21>     C       18.1128578   14.4564807   19.7593830
| 22>     C       17.4733277   13.7576482   20.7966310
| 23>     C       16.3113514   14.2897689   21.3794124
| 24>     C       15.8027267   15.5147547   20.9286733
| 25>     O       14.6844888   16.0358525   21.4926094
| 26>     C       16.4386991   16.2066711   19.8931532
| 27>     H       15.0426029   12.6284701   16.6935434
| 28>     H       16.1783013   12.8779449   15.3477101
| 29>     H       14.6708897   13.8193311   15.4263302
| 30>     H       15.4816572   14.9580626   17.5118473
| 31>     H       16.9966255   14.0007972   17.4222175
| 32>     H       15.4838148   19.4055021   16.8401181
| 33>     H       16.9025292   19.9063498   15.9114424
| 34>     H       16.5410140   20.6746916   17.4667034
| 35>     H       18.1094866   20.1504963   18.8517654
| 36>     H       20.2106434   16.7407826   19.1677820
| 37>     H       18.7811490   15.6695374   17.4934589
| 38>     H       19.0162511   14.0441780   19.3172502
| 39>     H       17.8816823   12.8122653   21.1507799
| 40>     H       15.8156579   13.7556867   22.1837556
| 41>     H       14.4278508   15.4545271   22.2247991
| 42>     H       16.0260321   17.1582581   19.5793143
| 43> *
| 44>
| 45>                          ****END OF INPUT****

CARTESIAN COORDINATES (ANGSTROEM)
---------------------------------
  C     15.478858   13.381827   16.026483
  C     16.199167   14.470738   16.837784
  O     16.743433   15.405452   15.894451
  C     16.699236   16.757647   16.100921
  O     16.167852   17.451303   15.254779
  C     17.412165   17.321763   17.310175
  C     17.359947   18.649434   17.606127
  C     16.531479   19.720094   16.927727
  N     18.187015   19.176808   18.604443
  C     19.272962   18.522471   19.123775
  S     20.380199   19.277996   20.092786
  N     19.406215   17.204893   18.766849
  C     18.321863   16.413603   18.159732
  C     17.596971   15.679914   19.289289
  C     18.112858   14.456481   19.759383
  C     17.473328   13.757648   20.796631
  C     16.311351   14.289769   21.379412
  C     15.802727   15.514755   20.928673
  O     14.684489   16.035853   21.492609
  C     16.438699   16.206671   19.893153
  H     15.042603   12.628470   16.693543
  H     16.178301   12.877945   15.347710
  H     14.670890   13.819331   15.426330
  H     15.481657   14.958063   17.511847
  H     16.996625   14.000797   17.422217
  H     15.483815   19.405502   16.840118
  H     16.902529   19.906350   15.911442
  H     16.541014   20.674692   17.466703
  H     18.109487   20.150496   18.851765
  H     20.210643   16.740783   19.167782
  H     18.781149   15.669537   17.493459
  H     19.016251   14.044178   19.317250
  H     17.881682   12.812265   21.150780
  H     15.815658   13.755687   22.183756
  H     14.427851   15.454527   22.224799
  H     16.026032   17.158258   19.579314

 Total Charge           Charge          ....    0
 Multiplicity           Mult            ....    1
 Number of Electrons    NEL             ....  154
 Basis Dimension        Dim             ....  828

ORBITAL ENERGIES
----------------

  NO   OCC          E(Eh)            E(eV)
   0   2.0000     -91.892398     -2500.5193
   1   2.0000     -20.604768      -560.6843
   2   2.0000     -20.588405      -560.2390
   3   2.0000     -20.541346      -558.9584
   4   2.0000     -15.632960      -425.3945
   5   2.0000     -15.611853      -424.8201
   6   2.0000     -11.392584      -310.0080
   7   2.0000     -11.386492      -309.8422
   8   2.0000     -11.339467      -308.5626
   9   2.0000     -11.322510      -308.1012
  10   2.0000     -11.317575      -307.9669
  11   2.0000     -11.297983      -307.4338
  12   2.0000     -11.269454      -306.6574
  13   2.0000     -11.264630      -306.5262
  14   2.0000     -11.261982      -306.4541
  15   2.0000     -11.253408      -306.2208
  16   2.0000     -11.250106      -306.1310
  17   2.0000     -11.246474      -306.0321
  18   2.0000     -11.245509      -306.0059
  19   2.0000     -11.226390      -305.4856
  20   2.0000      -8.897377      -242.1099
  21   2.0000      -6.578934      -179.0219
  22   2.0000      -6.576949      -178.9679
  23   2.0000      -6.576347      -178.9515
  24   2.0000      -1.444830       -39.3158
  25   2.0000      -1.424331       -38.7580
  26   2.0000      -1.352938       -36.8153
  27   2.0000      -1.344844       -36.5951
  28   2.0000      -1.243230       -33.8300
  29   2.0000      -1.165164       -31.7057
  30   2.0000      -1.122200       -30.5366
  31   2.0000      -1.048510       -28.5314
  32   2.0000      -1.035387       -28.1743
  33   2.0000      -1.024007       -27.8647
  34   2.0000      -1.000615       -27.2281
  35   2.0000      -0.987172       -26.8623
  36   2.0000      -0.928033       -25.2530
  37   2.0000      -0.878677       -23.9100
  38   2.0000      -0.852477       -23.1971
  39   2.0000      -0.849137       -23.1062
  40   2.0000      -0.841359       -22.8945
  41   2.0000      -0.833484       -22.6803
  42   2.0000      -0.763379       -20.7726
  43   2.0000      -0.738506       -20.0958
  44   2.0000      -0.719496       -19.5785
  45   2.0000      -0.704740       -19.1769
  46   2.0000      -0.697096       -18.9689
  47   2.0000      -0.676936       -18.4204
  48   2.0000      -0.669205       -18.2100
  49   2.0000      -0.668152       -18.1813
  50   2.0000      -0.653009       -17.7693
  51   2.0000      -0.647160       -17.6101
  52   2.0000      -0.642639       -17.4871
  53   2.0000      -0.617528       -16.8038
  54   2.0000      -0.607715       -16.5368
  55   2.0000      -0.603385       -16.4189
  56   2.0000      -0.593423       -16.1479
  57   2.0000      -0.585025       -15.9193
  58   2.0000      -0.573414       -15.6034
  59   2.0000      -0.567336       -15.4380
  60   2.0000      -0.566396       -15.4124
  61   2.0000      -0.546593       -14.8735
  62   2.0000      -0.538741       -14.6599
  63   2.0000      -0.534571       -14.5464
  64   2.0000      -0.519923       -14.1478
  65   2.0000      -0.514183       -13.9916
  66   2.0000      -0.510405       -13.8888
  67   2.0000      -0.502553       -13.6752
  68   2.0000      -0.484694       -13.1892
  69   2.0000      -0.465369       -12.6633
  70   2.0000      -0.453757       -12.3473
  71   2.0000      -0.443190       -12.0598
  72   2.0000      -0.362164        -9.8550
  73   2.0000      -0.357231        -9.7208
  74   2.0000      -0.333286        -9.0692
  75   2.0000      -0.327904        -8.9227
  76   2.0000      -0.319030        -8.6812
  77   0.0000       0.072352         1.9688
  78   0.0000       0.098580         2.6825
  79   0.0000       0.114880         3.1260
  80   0.0000       0.123318         3.3557
  81   0.0000       0.129489         3.5236

MULLIKEN ATOMIC CHARGES
-----------------------
   0 C :   -0.255619
   1 C :    0.016986
   2 O :   -0.335707
   3 C :    0.466565
   4 O :   -0.388911
   5 C :   -0.277873
   6 C :    0.147548
   7 C :   -0.267446
   8 N :   -0.124490
   9 C :    0.219025
  10 S :   -0.436843
  11 N :   -0.207613
  12 C :    0.049860
  13 C :    0.070450
  14 C :   -0.232066
  15 C :   -0.127127
  16 C :   -0.276574
  17 C :    0.320437
  18 O :   -0.355808
  19 C :   -0.264826
  20 H :    0.087043
  21 H :    0.097836
  22 H :    0.105495
  23 H :    0.097925
  24 H :    0.091167
  25 H :    0.126670
  26 H :    0.140837
  27 H :    0.093806
  28 H :    0.199323
  29 H :    0.189918
  30 H :    0.160976
  31 H :    0.156183
  32 H :    0.162965
  33 H :    0.132818
  34 H :    0.243190
  35 H :    0.173879
Sum of atomic charges:   -0.0000000

LOEWDIN ATOMIC CHARGES
----------------------
   0 C :    0.110408
   1 C :   -0.029542
   2 O :    0.300506
   3 C :   -0.425230
   4 O :    0.118411
   5 C :   -0.098040
   6 C :   -0.054396
   7 C :    0.130026
   8 N :    0.409681
   9 C :   -0.453580
  10 S :   -0.030648
  11 N :    0.396111
  12 C :   -0.052698
  13 C :   -0.036216
  14 C :    0.005818
  15 C :    0.044054
  16 C :   -0.000840
  17 C :   -0.188904
  18 O :    0.396529
  19 C :    0.027474
  20 H :   -0.027174
  21 H :   -0.025851
  22 H :   -0.023351
  23 H :   -0.030499
  24 H :   -0.036360
  25 H :   -0.006085
  26 H :   -0.001509
  27 H :   -0.023320
  28 H :   -0.056659
  29 H :   -0.068115
  30 H :   -0.005336
  31 H :   -0.031908
  32 H :   -0.018567
  33 H :   -0.034074
  34 H :   -0.151365
  35 H :   -0.028752

  Mayer bond orders larger than 0.100000
B(  0-C ,  1-C ) :   0.9860 B(  0-C , 20-H ) :   0.9775 B(  0-C , 21-H ) :   0.9799
B(  0-C , 22-H ) :   0.9796 B(  1-C ,  2-O ) :   0.8906 B(  1-C , 23-H ) :   0.9668
B(  1-C , 24-H ) :   0.9710 B(  2-O ,  3-C ) :   1.1477 B(  3-C ,  4-O ) :   2.0609
B(  3-C ,  5-C ) :   1.0201 B(  5-C ,  6-C ) :   1.6390 B(  5-C , 12-C ) :   0.9638
B(  6-C ,  7-C ) :   0.9755 B(  6-C ,  8-N ) :   1.1528 B(  7-C , 25-H ) :   0.9643
B(  7-C , 26-H ) :   0.9533 B(  7-C , 27-H ) :   0.9879 B(  8-N ,  9-C ) :   1.1875
B(  8-N , 28-H ) :   0.9483 B(  9-C , 10-S ) :   1.6090 B(  9-C , 11-N ) :   1.2968
B( 11-N , 12-C ) :   0.9502 B( 11-N , 29-H ) :   0.9533 B( 12-C , 13-C ) :   0.9599
B( 12-C , 30-H ) :   0.9968 B( 13-C , 14-C ) :   1.3355 B( 13-C , 19-C ) :   1.3684
B( 14-C , 15-C ) :   1.4070 B( 14-C , 31-H ) :   0.9725 B( 15-C , 16-C ) :   1.3605
B( 15-C , 32-H ) :   0.9695 B( 16-C , 17-C ) :   1.3377 B( 16-C , 33-H ) :   0.9839
B( 17-C , 18-O ) :   1.1168 B( 17-C , 19-C ) :   1.3594 B( 18-O , 34-H ) :   0.9781
B( 19-C , 35-H ) :   0.9526

MP2 TOTAL ENERGY:    -1274.331546730 Eh
FINAL SINGLE POINT ENERGY     -1274.331546730231

DIPOLE MOMENT
-------------
                                X             Y             Z
Electronic contribution:      8.98931      10.24339       5.21418
Nuclear contribution   :    -10.04457     -11.78264      -4.35560
                        -----------------------------------------
Total Dipole Moment    :     -1.05525      -1.53925       0.85858
                        -----------------------------------------
Magnitude (a.u.)       :      2.05427
Magnitude (Debye)      :      5.22153

Rotational constants in cm-1:     0.011186     0.009199     0.006477
Rotational constants in MHz :   335.356354   275.775498   194.169611

                             ****ORCA TERMINATED NORMALLY****
TOTAL RUN TIME: 0 days 1 hours 44 minutes 9 seconds 378 msec
