                         Program Version 4.2.0 -  RELEASE  -
|  1> ! ri-mp2 cc-pvtz cc-pvtz/c TightSCF  NoKeepInts
|  2>
|  3> %scf
|  4>   MaxCore 4096
|  5> end
|  6> *xyz  0  1
|  7>     C       15.0515896   14.8470546   16.6914335
|  8>     C       16.4379474   14.1688071   16.7676818
|  9>     O       17.4786726   14.9624563   16.1460602
| 10>     C       17.3963284   16.3226368   16.0283071
| 11>     O       16.9481729   16.8081511   15.0057044
| 12>     C       17.6987201   17.1137234   17.2748330
| 13>     C       17.3620072   18.4251184   17.3909157
| 14>     C       16.5394668   19.2548893   16.4285634
| 15>     N       17.8386408   19.1748142   18.4714852
| 16>     C       18.8498773   18.7693285   19.3025551
| 17>     S       19.5381558   19.7854302   20.4113810
| 18>     N       19.2793785   17.4755354   19.1460474
| 19>     C       18.5516547   16.4533236   18.3730300
| 20>     C       17.7572712   15.5983741   19.3538980
| 21>     C       18.2978228   14.3843637   19.8196987
| 22>     C       17.5824589   13.5831485   20.7253981
| 23>     C       16.3197408   14.0023893   21.1772309
| 24>     C       15.7861150   15.2186190   20.7305215
| 25>     O       14.5690226   15.6290649   21.1667838
| 26>     C       16.4996334   16.0139965   19.8289465
| 27>     H       15.0193414   15.7671058   17.2872144
| 28>     H       14.2791205   14.1727216   17.0804416
| 29>     H       14.7937551   15.0917525   15.6528073
| 30>     H       16.6748687   13.9521527   17.8117582
| 31>     H       16.3872951   13.2008619   16.2526413
| 32>     H       15.6074824   18.7376286   16.1676152
| 33>     H       17.0927017   19.4209344   15.4950696
| 34>     H       16.2664427   20.2357826   16.8348830
| 35>     H       17.5485410   20.1337829   18.5787848
| 36>     H       20.0157928   17.1974393   19.7816412
| 37>     H       19.2940495   15.8112112   17.8777582
| 38>     H       19.2753675   14.0577875   19.4742224
| 39>     H       18.0080065   12.6445511   21.0771822
| 40>     H       15.7639960   13.3873781   21.8777425
| 41>     H       14.2672592   14.9925825   21.8327771
| 42>     H       16.0703033   16.9571022   19.5109859
| 43> *
| 44>
| 45>                          ****END OF INPUT****

CARTESIAN COORDINATES (ANGSTROEM)
---------------------------------
  C     15.051590   14.847055   16.691433
  C     16.437947   14.168807   16.767682
  O     17.478673   14.962456   16.146060
  C     17.396328   16.322637   16.028307
  O     16.948173   16.808151   15.005704
  C     17.698720   17.113723   17.274833
  C     17.362007   18.425118   17.390916
  C     16.539467   19.254889   16.428563
  N     17.838641   19.174814   18.471485
  C     18.849877   18.769329   19.302555
  S     19.538156   19.785430   20.411381
  N     19.279378   17.475535   19.146047
  C     18.551655   16.453324   18.373030
  C     17.757271   15.598374   19.353898
  C     18.297823   14.384364   19.819699
  C     17.582459   13.583148   20.725398
  C     16.319741   14.002389   21.177231
  C     15.786115   15.218619   20.730521
  O     14.569023   15.629065   21.166784
  C     16.499633   16.013997   19.828947
  H     15.019341   15.767106   17.287214
  H     14.279120   14.172722   17.080442
  H     14.793755   15.091753   15.652807
  H     16.674869   13.952153   17.811758
  H     16.387295   13.200862   16.252641
  H     15.607482   18.737629   16.167615
  H     17.092702   19.420934   15.495070
  H     16.266443   20.235783   16.834883
  H     17.548541   20.133783   18.578785
  H     20.015793   17.197439   19.781641
  H     19.294049   15.811211   17.877758
  H     19.275368   14.057787   19.474222
  H     18.008006   12.644551   21.077182
  H     15.763996   13.387378   21.877743
  H     14.267259   14.992582   21.832777
  H     16.070303   16.957102   19.510986

 Total Charge           Charge          ....    0
 Multiplicity           Mult            ....    1
 Number of Electrons    NEL             ....  154
 Basis Dimension        Dim             ....  828

ORBITAL ENERGIES
----------------

  NO   OCC          E(Eh)            E(eV)
   0   2.0000     -91.891560     -2500.4965
   1   2.0000     -20.604417      -560.6747
   2   2.0000     -20.579794      -560.0047
   3   2.0000     -20.545986      -559.0847
   4   2.0000     -15.632095      -425.3709
   5   2.0000     -15.610394      -424.7804
   6   2.0000     -11.392563      -310.0074
   7   2.0000     -11.385918      -309.8266
   8   2.0000     -11.338050      -308.5240
   9   2.0000     -11.322124      -308.0907
  10   2.0000     -11.313963      -307.8686
  11   2.0000     -11.296972      -307.4062
  12   2.0000     -11.267020      -306.5912
  13   2.0000     -11.263592      -306.4979
  14   2.0000     -11.259611      -306.3896
  15   2.0000     -11.254059      -306.2385
  16   2.0000     -11.250686      -306.1467
  17   2.0000     -11.245501      -306.0056
  18   2.0000     -11.245140      -305.9958
  19   2.0000     -11.226854      -305.4982
  20   2.0000      -8.896559      -242.0877
  21   2.0000      -6.578119      -178.9997
  22   2.0000      -6.576132      -178.9456
  23   2.0000      -6.575532      -178.9293
  24   2.0000      -1.441008       -39.2118
  25   2.0000      -1.423998       -38.7490
  26   2.0000      -1.349369       -36.7182
  27   2.0000      -1.343389       -36.5555
  28   2.0000      -1.241841       -33.7922
  29   2.0000      -1.164632       -31.6912
  30   2.0000      -1.122070       -30.5331
  31   2.0000      -1.048105       -28.5204
  32   2.0000      -1.030115       -28.0308
  33   2.0000      -1.023181       -27.8422
  34   2.0000      -1.000676       -27.2298
  35   2.0000      -0.987168       -26.8622
  36   2.0000      -0.927012       -25.2253
  37   2.0000      -0.894174       -24.3317
  38   2.0000      -0.850522       -23.1439
  39   2.0000      -0.846503       -23.0345
  40   2.0000      -0.840634       -22.8748
  41   2.0000      -0.824859       -22.4456
  42   2.0000      -0.747521       -20.3411
  43   2.0000      -0.737131       -20.0583
  44   2.0000      -0.715303       -19.4644
  45   2.0000      -0.703014       -19.1300
  46   2.0000      -0.693310       -18.8659
  47   2.0000      -0.674653       -18.3582
  48   2.0000      -0.671052       -18.2603
  49   2.0000      -0.661819       -18.0090
  50   2.0000      -0.655164       -17.8279
  51   2.0000      -0.649498       -17.6737
  52   2.0000      -0.638206       -17.3665
  53   2.0000      -0.625335       -17.0162
  54   2.0000      -0.615106       -16.7379
  55   2.0000      -0.605913       -16.4877
  56   2.0000      -0.602379       -16.3916
  57   2.0000      -0.584250       -15.8983
  58   2.0000      -0.573599       -15.6084
  59   2.0000      -0.567285       -15.4366
  60   2.0000      -0.544495       -14.8165
  61   2.0000      -0.541418       -14.7327
  62   2.0000      -0.538644       -14.6572
  63   2.0000      -0.533179       -14.5085
  64   2.0000      -0.529957       -14.4209
  65   2.0000      -0.516913       -14.0659
  66   2.0000      -0.508176       -13.8282
  67   2.0000      -0.495301       -13.4778
  68   2.0000      -0.481195       -13.0940
  69   2.0000      -0.466189       -12.6856
  70   2.0000      -0.451894       -12.2966
  71   2.0000      -0.441611       -12.0169
  72   2.0000      -0.360070        -9.7980
  73   2.0000      -0.356943        -9.7129
  74   2.0000      -0.332822        -9.0565
  75   2.0000      -0.328039        -8.9264
  76   2.0000      -0.318266        -8.6605
  77   0.0000       0.069176         1.8824
  78   0.0000       0.101709         2.7676
  79   0.0000       0.120078         3.2675
  80   0.0000       0.124945         3.3999
  81   0.0000       0.129931         3.5356

MULLIKEN ATOMIC CHARGES
-----------------------
   0 C :   -0.319172
   1 C :    0.029801
   2 O :   -0.386224
   3 C :    0.505704
   4 O :   -0.398703
   5 C :   -0.283959
   6 C :    0.150253
   7 C :   -0.271894
   8 N :   -0.123177
   9 C :    0.216470
  10 S :   -0.436512
  11 N :   -0.202403
  12 C :    0.049812
  13 C :    0.067762
  14 C :   -0.206711
  15 C :   -0.127087
  16 C :   -0.276882
  17 C :    0.320060
  18 O :   -0.357402
  19 C :   -0.277293
  20 H :    0.093747
  21 H :    0.109697
  22 H :    0.125554
  23 H :    0.107193
  24 H :    0.120027
  25 H :    0.126596
  26 H :    0.139855
  27 H :    0.094254
  28 H :    0.198821
  29 H :    0.191166
  30 H :    0.152789
  31 H :    0.149994
  32 H :    0.163429
  33 H :    0.133789
  34 H :    0.243024
  35 H :    0.177624
Sum of atomic charges:   -0.0000000

LOEWDIN ATOMIC CHARGES
----------------------
   0 C :    0.105311
   1 C :   -0.011204
   2 O :    0.277927
   3 C :   -0.423709
   4 O :    0.122965
   5 C :   -0.099272
   6 C :   -0.059268
   7 C :    0.130452
   8 N :    0.408116
   9 C :   -0.454471
  10 S :   -0.031577
  11 N :    0.396062
  12 C :   -0.052705
  13 C :   -0.037854
  14 C :    0.009776
  15 C :    0.043348
  16 C :   -0.000492
  17 C :   -0.189094
  18 O :    0.396762
  19 C :    0.031960
  20 H :   -0.033528
  21 H :   -0.022804
  22 H :   -0.022770
  23 H :   -0.037580
  24 H :   -0.023831
  25 H :   -0.006673
  26 H :   -0.002062
  27 H :   -0.023085
  28 H :   -0.057219
  29 H :   -0.066692
  30 H :   -0.004984
  31 H :   -0.029908
  32 H :   -0.018926
  33 H :   -0.033861
  34 H :   -0.151752
  35 H :   -0.027359

  Mayer bond orders larger than 0.100000
B(  0-C ,  1-C ) :   0.9672 B(  0-C , 20-H ) :   0.9722 B(  0-C , 21-H ) :   0.9754
B(  0-C , 22-H ) :   0.9712 B(  1-C ,  2-O ) :   0.8968 B(  1-C , 23-H ) :   0.9674
B(  1-C , 24-H ) :   0.9828 B(  2-O ,  3-C ) :   1.1045 B(  3-C ,  4-O ) :   2.0351
B(  3-C ,  5-C ) :   1.0380 B(  5-C ,  6-C ) :   1.6484 B(  5-C , 12-C ) :   0.9725
B(  6-C ,  7-C ) :   0.9735 B(  6-C ,  8-N ) :   1.1554 B(  7-C , 25-H ) :   0.9655
B(  7-C , 26-H ) :   0.9550 B(  7-C , 27-H ) :   0.9871 B(  8-N ,  9-C ) :   1.1803
B(  8-N , 28-H ) :   0.9486 B(  9-C , 10-S ) :   1.6118 B(  9-C , 11-N ) :   1.3014
B( 11-N , 12-C ) :   0.9550 B( 11-N , 29-H ) :   0.9544 B( 12-C , 13-C ) :   0.9581
B( 12-C , 30-H ) :   0.9985 B( 13-C , 14-C ) :   1.3424 B( 13-C , 19-C ) :   1.3621
B( 14-C , 15-C ) :   1.3974 B( 14-C , 31-H ) :   0.9750 B( 15-C , 16-C ) :   1.3644
B( 15-C , 32-H ) :   0.9697 B( 16-C , 17-C ) :   1.3301 B( 16-C , 33-H ) :   0.9835
B( 17-C , 18-O ) :   1.1153 B( 17-C , 19-C ) :   1.3674 B( 18-O , 34-H ) :   0.9787
B( 19-C , 35-H ) :   0.9516

MP2 TOTAL ENERGY:    -1274.329342968 Eh
FINAL SINGLE POINT ENERGY     -1274.329342968345

DIPOLE MOMENT
-------------
                                X             Y             Z
Electronic contribution:     10.02647       7.92373       5.18597
Nuclear contribution   :    -11.17992      -9.49970      -4.64868
                        -----------------------------------------
Total Dipole Moment    :     -1.15344      -1.57596       0.53729
                        -----------------------------------------
Magnitude (a.u.)       :      2.02553
Magnitude (Debye)      :      5.14849

Rotational constants in cm-1:     0.011708     0.009693     0.006748
Rotational constants in MHz :   350.993455   290.590944   202.311659

                             ****ORCA TERMINATED NORMALLY****
TOTAL RUN TIME: 0 days 1 hours 48 minutes 24 seconds 619 msec
