                         Program Version 4.2.0 -  RELEASE  -
|  1> ! ri-mp2 cc-pvtz cc-pvtz/c TightSCF  NoKeepInts
|  2>
|  3> %scf
|  4>   MaxCore 4096
|  5> end
|  6> *xyz  0  1
|  7>     C       15.1964509   15.0487828   17.4538678
|  8>     C       15.5464876   15.4716762   16.0150703
|  9>     O       16.9425237   15.2339560   15.7210782
| 10>     C       18.0251982   15.6178705   16.4765553
| 11>     O       19.0025498   14.8942143   16.5310111
| 12>     C       17.9019135   16.8154287   17.3708336
| 13>     C       17.4042691   18.0098233   16.9631467
| 14>     C       16.9503861   18.4048507   15.5727434
| 15>     N       17.4256793   19.1060869   17.8288026
| 16>     C       18.0821147   19.1409554   19.0302137
| 17>     S       18.1472528   20.5160314   19.9460858
| 18>     N       18.6907873   17.9783489   19.4299188
| 19>     C       18.5623333   16.6740738   18.7504341
| 20>     C       17.8465038   15.6551543   19.6367360
| 21>     C       18.2553572   14.3083261   19.6303688
| 22>     C       17.6043539   13.3551109   20.4306729
| 23>     C       16.5343770   13.7497723   21.2508158
| 24>     C       16.1252193   15.0895606   21.2659179
| 25>     O       15.0872404   15.4730509   22.0507796
| 26>     C       16.7753192   16.0368593   20.4683845
| 27>     H       15.7360945   14.1378913   17.7444400
| 28>     H       14.1217709   14.8478146   17.5400608
| 29>     H       15.4346051   15.8465765   18.1631249
| 30>     H       14.9488306   14.8684472   15.3192517
| 31>     H       15.2584013   16.5144090   15.8603436
| 32>     H       17.1503553   17.6271245   14.8264165
| 33>     H       17.4892688   19.2982860   15.2315489
| 34>     H       15.8790939   18.6381332   15.5516329
| 35>     H       17.0081306   19.9773111   17.5414611
| 36>     H       19.1599616   18.0278817   20.3255474
| 37>     H       19.5828623   16.2979696   18.5843209
| 38>     H       19.0788770   13.9952973   18.9918901
| 39>     H       17.9295631   12.3162708   20.4097901
| 40>     H       16.0274921   13.0160672   21.8688506
| 41>     H       14.8023465   14.6965394   22.5558408
| 42>     H       16.4330293   17.0660473   20.4960425
| 43> *
| 44>
| 45>                          ****END OF INPUT****

CARTESIAN COORDINATES (ANGSTROEM)
---------------------------------
  C     15.196451   15.048783   17.453868
  C     15.546488   15.471676   16.015070
  O     16.942524   15.233956   15.721078
  C     18.025198   15.617871   16.476555
  O     19.002550   14.894214   16.531011
  C     17.901913   16.815429   17.370834
  C     17.404269   18.009823   16.963147
  C     16.950386   18.404851   15.572743
  N     17.425679   19.106087   17.828803
  C     18.082115   19.140955   19.030214
  S     18.147253   20.516031   19.946086
  N     18.690787   17.978349   19.429919
  C     18.562333   16.674074   18.750434
  C     17.846504   15.655154   19.636736
  C     18.255357   14.308326   19.630369
  C     17.604354   13.355111   20.430673
  C     16.534377   13.749772   21.250816
  C     16.125219   15.089561   21.265918
  O     15.087240   15.473051   22.050780
  C     16.775319   16.036859   20.468384
  H     15.736094   14.137891   17.744440
  H     14.121771   14.847815   17.540061
  H     15.434605   15.846576   18.163125
  H     14.948831   14.868447   15.319252
  H     15.258401   16.514409   15.860344
  H     17.150355   17.627125   14.826417
  H     17.489269   19.298286   15.231549
  H     15.879094   18.638133   15.551633
  H     17.008131   19.977311   17.541461
  H     19.159962   18.027882   20.325547
  H     19.582862   16.297970   18.584321
  H     19.078877   13.995297   18.991890
  H     17.929563   12.316271   20.409790
  H     16.027492   13.016067   21.868851
  H     14.802346   14.696539   22.555841
  H     16.433029   17.066047   20.496042

 Total Charge           Charge          ....    0
 Multiplicity           Mult            ....    1
 Number of Electrons    NEL             ....  154
 Basis Dimension        Dim             ....  828

ORBITAL ENERGIES
----------------

  NO   OCC          E(Eh)            E(eV)
   0   2.0000     -91.891095     -2500.4838
   1   2.0000     -20.598263      -560.5072
   2   2.0000     -20.597474      -560.4858
   3   2.0000     -20.549615      -559.1834
   4   2.0000     -15.629340      -425.2960
   5   2.0000     -15.611130      -424.8004
   6   2.0000     -11.400409      -310.2209
   7   2.0000     -11.387121      -309.8593
   8   2.0000     -11.336256      -308.4752
   9   2.0000     -11.314140      -307.8734
  10   2.0000     -11.313234      -307.8487
  11   2.0000     -11.308228      -307.7125
  12   2.0000     -11.269029      -306.6459
  13   2.0000     -11.269006      -306.6452
  14   2.0000     -11.261548      -306.4423
  15   2.0000     -11.254304      -306.2452
  16   2.0000     -11.243634      -305.9548
  17   2.0000     -11.239297      -305.8368
  18   2.0000     -11.235494      -305.7333
  19   2.0000     -11.227981      -305.5289
  20   2.0000      -8.896191      -242.0777
  21   2.0000      -6.577776      -178.9904
  22   2.0000      -6.575753      -178.9353
  23   2.0000      -6.575173      -178.9196
  24   2.0000      -1.445831       -39.3431
  25   2.0000      -1.417285       -38.5663
  26   2.0000      -1.358387       -36.9636
  27   2.0000      -1.342662       -36.5357
  28   2.0000      -1.241209       -33.7750
  29   2.0000      -1.158519       -31.5249
  30   2.0000      -1.124810       -30.6076
  31   2.0000      -1.047057       -28.4919
  32   2.0000      -1.037664       -28.2363
  33   2.0000      -1.017163       -27.6784
  34   2.0000      -1.005811       -27.3695
  35   2.0000      -0.989928       -26.9373
  36   2.0000      -0.927834       -25.2476
  37   2.0000      -0.896559       -24.3966
  38   2.0000      -0.855487       -23.2790
  39   2.0000      -0.841184       -22.8898
  40   2.0000      -0.834175       -22.6991
  41   2.0000      -0.829458       -22.5707
  42   2.0000      -0.745903       -20.2971
  43   2.0000      -0.739237       -20.1157
  44   2.0000      -0.730198       -19.8697
  45   2.0000      -0.695288       -18.9197
  46   2.0000      -0.687050       -18.6956
  47   2.0000      -0.681043       -18.5321
  48   2.0000      -0.675433       -18.3795
  49   2.0000      -0.660579       -17.9753
  50   2.0000      -0.656115       -17.8538
  51   2.0000      -0.650340       -17.6967
  52   2.0000      -0.639352       -17.3977
  53   2.0000      -0.623545       -16.9675
  54   2.0000      -0.610186       -16.6040
  55   2.0000      -0.605452       -16.4752
  56   2.0000      -0.601420       -16.3655
  57   2.0000      -0.588263       -16.0075
  58   2.0000      -0.576273       -15.6812
  59   2.0000      -0.565793       -15.3960
  60   2.0000      -0.565565       -15.3898
  61   2.0000      -0.551236       -14.9999
  62   2.0000      -0.539877       -14.6908
  63   2.0000      -0.535965       -14.5843
  64   2.0000      -0.520479       -14.1629
  65   2.0000      -0.512937       -13.9577
  66   2.0000      -0.501261       -13.6400
  67   2.0000      -0.498712       -13.5707
  68   2.0000      -0.482519       -13.1300
  69   2.0000      -0.469373       -12.7723
  70   2.0000      -0.457322       -12.4444
  71   2.0000      -0.449917       -12.2429
  72   2.0000      -0.359293        -9.7769
  73   2.0000      -0.348289        -9.4774
  74   2.0000      -0.330603        -8.9962
  75   2.0000      -0.322837        -8.7848
  76   2.0000      -0.319647        -8.6980
  77   0.0000       0.078723         2.1422
  78   0.0000       0.106847         2.9075
  79   0.0000       0.114653         3.1199
  80   0.0000       0.130381         3.5478
  81   0.0000       0.131324         3.5735

MULLIKEN ATOMIC CHARGES
-----------------------
   0 C :   -0.328198
   1 C :    0.028483
   2 O :   -0.332367
   3 C :    0.438054
   4 O :   -0.386550
   5 C :   -0.252416
   6 C :    0.178869
   7 C :   -0.334622
   8 N :   -0.136855
   9 C :    0.198660
  10 S :   -0.438954
  11 N :   -0.222984
  12 C :    0.086478
  13 C :    0.023878
  14 C :   -0.219507
  15 C :   -0.136325
  16 C :   -0.275020
  17 C :    0.322143
  18 O :   -0.357187
  19 C :   -0.272584
  20 H :    0.125806
  21 H :    0.113061
  22 H :    0.109141
  23 H :    0.127208
  24 H :    0.085578
  25 H :    0.136190
  26 H :    0.139433
  27 H :    0.120594
  28 H :    0.196933
  29 H :    0.201790
  30 H :    0.166158
  31 H :    0.177928
  32 H :    0.164867
  33 H :    0.131722
  34 H :    0.240903
  35 H :    0.179694
Sum of atomic charges:   -0.0000000

LOEWDIN ATOMIC CHARGES
----------------------
   0 C :    0.105998
   1 C :   -0.020107
   2 O :    0.295320
   3 C :   -0.414281
   4 O :    0.122941
   5 C :   -0.081375
   6 C :   -0.090678
   7 C :    0.122153
   8 N :    0.403268
   9 C :   -0.459481
  10 S :   -0.036152
  11 N :    0.398002
  12 C :   -0.042873
  13 C :   -0.042005
  14 C :    0.019968
  15 C :    0.042732
  16 C :   -0.001420
  17 C :   -0.192737
  18 O :    0.395301
  19 C :    0.027325
  20 H :   -0.018979
  21 H :   -0.024788
  22 H :   -0.034640
  23 H :   -0.019615
  24 H :   -0.039448
  25 H :   -0.008044
  26 H :   -0.009236
  27 H :   -0.019305
  28 H :   -0.056771
  29 H :   -0.063048
  30 H :   -0.002171
  31 H :   -0.022608
  32 H :   -0.018962
  33 H :   -0.035093
  34 H :   -0.153540
  35 H :   -0.025652

  Mayer bond orders larger than 0.100000
B(  0-C ,  1-C ) :   0.9556 B(  0-C , 20-H ) :   0.9680 B(  0-C , 21-H ) :   0.9778
B(  0-C , 22-H ) :   0.9724 B(  1-C ,  2-O ) :   0.9018 B(  1-C , 23-H ) :   0.9831
B(  1-C , 24-H ) :   0.9728 B(  2-O ,  3-C ) :   1.1730 B(  3-C ,  4-O ) :   2.0751
B(  3-C ,  5-C ) :   0.9391 B(  5-C ,  6-C ) :   1.6750 B(  5-C , 12-C ) :   0.9482
B(  6-C ,  7-C ) :   0.9428 B(  6-C ,  8-N ) :   1.1185 B(  7-C , 25-H ) :   0.9770
B(  7-C , 26-H ) :   0.9700 B(  7-C , 27-H ) :   0.9663 B(  8-N ,  9-C ) :   1.1925
B(  8-N , 28-H ) :   0.9521 B(  9-C , 10-S ) :   1.6106 B(  9-C , 11-N ) :   1.2918
B( 11-N , 12-C ) :   0.9868 B( 11-N , 29-H ) :   0.9485 B( 12-C , 13-C ) :   0.9539
B( 12-C , 30-H ) :   0.9953 B( 13-C , 14-C ) :   1.3870 B( 13-C , 19-C ) :   1.3374
B( 14-C , 15-C ) :   1.4002 B( 14-C , 31-H ) :   0.9571 B( 15-C , 16-C ) :   1.3586
B( 15-C , 32-H ) :   0.9698 B( 16-C , 17-C ) :   1.3313 B( 16-C , 33-H ) :   0.9847
B( 17-C , 18-O ) :   1.1103 B( 17-C , 19-C ) :   1.3647 B( 18-O , 34-H ) :   0.9797
B( 19-C , 35-H ) :   0.9582

MP2 TOTAL ENERGY:    -1274.333009131 Eh
FINAL SINGLE POINT ENERGY     -1274.333009131208

DIPOLE MOMENT
-------------
                                X             Y             Z
Electronic contribution:      8.94949       6.88588       6.27720
Nuclear contribution   :    -10.48241      -7.85138      -6.87917
                        -----------------------------------------
Total Dipole Moment    :     -1.53291      -0.96550      -0.60197
                        -----------------------------------------
Magnitude (a.u.)       :      1.90903
Magnitude (Debye)      :      4.85236

Rotational constants in cm-1:     0.011624     0.009659     0.006684
Rotational constants in MHz :   348.471995   289.563305   200.389401

                             ****ORCA TERMINATED NORMALLY****
TOTAL RUN TIME: 0 days 1 hours 49 minutes 2 seconds 346 msec
