                         Program Version 5.0.0 -  RELEASE  -
|  1> ! ri-mp2 cc-pvtz cc-pvtz/c TightSCF NoKeepInts
|  2>
|  3> %scf
|  4>   MaxCore 4096
|  5> end
|  6> *xyz  0  1
|  7>     C       15.0069273   14.1752517   16.4152883
|  8>     C       15.6773348   14.9470287   15.2574692
|  9>     O       16.4257403   16.0658667   15.7736555
| 10>     C       17.4792589   15.8668913   16.6198436
| 11>     O       18.0561183   14.7945051   16.7024816
| 12>     C       17.7856314   17.0205799   17.5322000
| 13>     C       17.3268445   18.2905521   17.3756171
| 14>     C       16.4424988   18.8377456   16.2738023
| 15>     N       17.7270003   19.2880124   18.2713262
| 16>     C       18.6763368   19.1330645   19.2465452
| 17>     S       19.1791197   20.4002820   20.1830525
| 18>     N       19.1875987   17.8704937   19.4059944
| 19>     C       18.6848763   16.6648317   18.7215518
| 20>     C       17.9512410   15.7571506   19.7057070
| 21>     C       18.3300380   14.4097462   19.8509545
| 22>     C       17.6521097   13.5673514   20.7479580
| 23>     C       16.5847734   14.0755605   21.5076108
| 24>     C       16.2017018   15.4158984   21.3634060
| 25>     O       15.1669012   15.9078627   22.0903852
| 26>     C       16.8781123   16.2517887   20.4694426
| 27>     H       15.7485348   13.6769846   17.0520835
| 28>     H       14.3370970   13.4025952   16.0192152
| 29>     H       14.4133895   14.8530116   17.0412430
| 30>     H       16.3390641   14.2734923   14.6959746
| 31>     H       14.9041736   15.3146200   14.5707810
| 32>     H       15.4317871   18.4166714   16.3439716
| 33>     H       16.8479613   18.5830849   15.2866386
| 34>     H       16.3467201   19.9296805   16.3095552
| 35>     H       17.3633240   20.2221296   18.1710758
| 36>     H       19.8627501   17.7751873   20.1536473
| 37>     H       19.5554879   16.1178545   18.3315140
| 38>     H       19.1431974   14.0094003   19.2502919
| 39>     H       17.9512783   12.5253721   20.8458573
| 40>     H       16.0571482   13.4279409   22.1997799
| 41>     H       14.8582389   15.1971446   22.6720883
| 42>     H       16.5666843   17.2863664   20.3759912
| 43> *
| 44>
| 45>                          ****END OF INPUT****

CARTESIAN COORDINATES (ANGSTROEM)
---------------------------------
  C     15.006927   14.175252   16.415288
  C     15.677335   14.947029   15.257469
  O     16.425740   16.065867   15.773656
  C     17.479259   15.866891   16.619844
  O     18.056118   14.794505   16.702482
  C     17.785631   17.020580   17.532200
  C     17.326844   18.290552   17.375617
  C     16.442499   18.837746   16.273802
  N     17.727000   19.288012   18.271326
  C     18.676337   19.133064   19.246545
  S     19.179120   20.400282   20.183052
  N     19.187599   17.870494   19.405994
  C     18.684876   16.664832   18.721552
  C     17.951241   15.757151   19.705707
  C     18.330038   14.409746   19.850955
  C     17.652110   13.567351   20.747958
  C     16.584773   14.075560   21.507611
  C     16.201702   15.415898   21.363406
  O     15.166901   15.907863   22.090385
  C     16.878112   16.251789   20.469443
  H     15.748535   13.676985   17.052083
  H     14.337097   13.402595   16.019215
  H     14.413389   14.853012   17.041243
  H     16.339064   14.273492   14.695975
  H     14.904174   15.314620   14.570781
  H     15.431787   18.416671   16.343972
  H     16.847961   18.583085   15.286639
  H     16.346720   19.929680   16.309555
  H     17.363324   20.222130   18.171076
  H     19.862750   17.775187   20.153647
  H     19.555488   16.117854   18.331514
  H     19.143197   14.009400   19.250292
  H     17.951278   12.525372   20.845857
  H     16.057148   13.427941   22.199780
  H     14.858239   15.197145   22.672088
  H     16.566684   17.286366   20.375991

 Total Charge           Charge          ....    0
 Multiplicity           Mult            ....    1
 Number of Electrons    NEL             ....  154
 Basis Dimension        Dim             ....  828

ORBITAL ENERGIES
----------------

  NO   OCC          E(Eh)            E(eV)
   0   2.0000     -91.888242     -2500.4062
   1   2.0000     -20.601098      -560.5844
   2   2.0000     -20.592253      -560.3437
   3   2.0000     -20.545531      -559.0723
   4   2.0000     -15.628604      -425.2759
   5   2.0000     -15.606964      -424.6871
   6   2.0000     -11.396331      -310.1099
   7   2.0000     -11.383148      -309.7512
   8   2.0000     -11.336723      -308.4879
   9   2.0000     -11.308153      -307.7105
  10   2.0000     -11.305676      -307.6431
  11   2.0000     -11.301608      -307.5324
  12   2.0000     -11.260606      -306.4167
  13   2.0000     -11.258689      -306.3645
  14   2.0000     -11.253951      -306.2356
  15   2.0000     -11.248312      -306.0821
  16   2.0000     -11.237954      -305.8003
  17   2.0000     -11.234068      -305.6945
  18   2.0000     -11.230998      -305.6110
  19   2.0000     -11.225705      -305.4670
  20   2.0000      -8.893305      -241.9991
  21   2.0000      -6.574881      -178.9116
  22   2.0000      -6.572875      -178.8570
  23   2.0000      -6.572289      -178.8411
  24   2.0000      -1.452474       -39.5238
  25   2.0000      -1.412001       -38.4225
  26   2.0000      -1.356482       -36.9118
  27   2.0000      -1.339525       -36.4503
  28   2.0000      -1.237182       -33.6654
  29   2.0000      -1.152760       -31.3682
  30   2.0000      -1.119679       -30.4680
  31   2.0000      -1.042005       -28.3544
  32   2.0000      -1.033388       -28.1199
  33   2.0000      -1.010067       -27.4853
  34   2.0000      -0.997697       -27.1487
  35   2.0000      -0.983178       -26.7536
  36   2.0000      -0.921723       -25.0813
  37   2.0000      -0.895425       -24.3657
  38   2.0000      -0.847849       -23.0711
  39   2.0000      -0.835629       -22.7386
  40   2.0000      -0.828478       -22.5440
  41   2.0000      -0.815530       -22.1917
  42   2.0000      -0.750613       -20.4252
  43   2.0000      -0.735305       -20.0087
  44   2.0000      -0.725199       -19.7337
  45   2.0000      -0.691078       -18.8052
  46   2.0000      -0.685592       -18.6559
  47   2.0000      -0.678554       -18.4644
  48   2.0000      -0.671332       -18.2679
  49   2.0000      -0.654966       -17.8225
  50   2.0000      -0.653118       -17.7722
  51   2.0000      -0.644540       -17.5388
  52   2.0000      -0.631824       -17.1928
  53   2.0000      -0.614391       -16.7184
  54   2.0000      -0.600629       -16.3440
  55   2.0000      -0.600084       -16.3291
  56   2.0000      -0.595660       -16.2087
  57   2.0000      -0.580138       -15.7864
  58   2.0000      -0.574133       -15.6230
  59   2.0000      -0.563930       -15.3453
  60   2.0000      -0.557076       -15.1588
  61   2.0000      -0.545659       -14.8481
  62   2.0000      -0.536789       -14.6068
  63   2.0000      -0.528357       -14.3773
  64   2.0000      -0.517264       -14.0755
  65   2.0000      -0.509438       -13.8625
  66   2.0000      -0.498783       -13.5726
  67   2.0000      -0.495182       -13.4746
  68   2.0000      -0.480860       -13.0849
  69   2.0000      -0.463340       -12.6081
  70   2.0000      -0.459210       -12.4958
  71   2.0000      -0.451265       -12.2795
  72   2.0000      -0.354270        -9.6402
  73   2.0000      -0.344600        -9.3770
  74   2.0000      -0.327381        -8.9085
  75   2.0000      -0.315982        -8.5983
  76   2.0000      -0.314274        -8.5518
  77   0.0000       0.075411         2.0520
  78   0.0000       0.111970         3.0469
  79   0.0000       0.120878         3.2893
  80   0.0000       0.135465         3.6862
  81   0.0000       0.141754         3.8573

MULLIKEN ATOMIC CHARGES
-----------------------
   0 C :   -0.305454
   1 C :    0.034877
   2 O :   -0.355257
   3 C :    0.450653
   4 O :   -0.431655
   5 C :   -0.174349
   6 C :    0.144236
   7 C :   -0.282669
   8 N :   -0.121661
   9 C :    0.202111
  10 S :   -0.439068
  11 N :   -0.198857
  12 C :    0.040580
  13 C :    0.056136
  14 C :   -0.165188
  15 C :   -0.134367
  16 C :   -0.279320
  17 C :    0.312282
  18 O :   -0.359069
  19 C :   -0.273650
  20 H :    0.126927
  21 H :    0.096575
  22 H :    0.094753
  23 H :    0.105951
  24 H :    0.108025
  25 H :    0.125719
  26 H :    0.127606
  27 H :    0.101473
  28 H :    0.196838
  29 H :    0.193961
  30 H :    0.153788
  31 H :    0.154722
  32 H :    0.159769
  33 H :    0.128490
  34 H :    0.240164
  35 H :    0.164928
Sum of atomic charges:   -0.0000000

LOEWDIN ATOMIC CHARGES
----------------------
   0 C :    0.106195
   1 C :   -0.016329
   2 O :    0.301528
   3 C :   -0.414261
   4 O :    0.104774
   5 C :   -0.091172
   6 C :   -0.065213
   7 C :    0.125265
   8 N :    0.404926
   9 C :   -0.458744
  10 S :   -0.035807
  11 N :    0.397944
  12 C :   -0.046425
  13 C :   -0.039239
  14 C :    0.021898
  15 C :    0.040295
  16 C :   -0.002266
  17 C :   -0.192703
  18 O :    0.393075
  19 C :    0.028463
  20 H :   -0.023537
  21 H :   -0.026495
  22 H :   -0.029357
  23 H :   -0.028094
  24 H :   -0.025299
  25 H :   -0.010043
  26 H :   -0.007939
  27 H :   -0.021205
  28 H :   -0.059121
  29 H :   -0.063632
  30 H :   -0.005122
  31 H :   -0.025167
  32 H :   -0.021150
  33 H :   -0.036290
  34 H :   -0.154807
  35 H :   -0.024946

  Mayer bond orders larger than 0.100000
B(  0-C ,  1-C ) :   0.9606 B(  0-C , 20-H ) :   0.9715 B(  0-C , 21-H ) :   0.9762
B(  0-C , 22-H ) :   0.9760 B(  1-C ,  2-O ) :   0.8964 B(  1-C , 23-H ) :   0.9808
B(  1-C , 24-H ) :   0.9843 B(  2-O ,  3-C ) :   1.1454 B(  3-C ,  4-O ) :   1.9794
B(  3-C ,  5-C ) :   1.0555 B(  5-C ,  6-C ) :   1.6455 B(  5-C , 12-C ) :   0.9662
B(  6-C ,  7-C ) :   0.9556 B(  6-C ,  8-N ) :   1.1499 B(  7-C , 25-H ) :   0.9638
B(  7-C , 26-H ) :   0.9652 B(  7-C , 27-H ) :   0.9911 B(  8-N ,  9-C ) :   1.1786
B(  8-N , 28-H ) :   0.9487 B(  9-C , 10-S ) :   1.6109 B(  9-C , 11-N ) :   1.3044
B( 11-N , 12-C ) :   0.9920 B( 11-N , 29-H ) :   0.9518 B( 12-C , 13-C ) :   0.9457
B( 12-C , 30-H ) :   1.0001 B( 13-C , 14-C ) :   1.3752 B( 13-C , 19-C ) :   1.3694
B( 14-C , 15-C ) :   1.3942 B( 14-C , 31-H ) :   0.9644 B( 15-C , 16-C ) :   1.3623
B( 15-C , 32-H ) :   0.9712 B( 16-C , 17-C ) :   1.3317 B( 16-C , 33-H ) :   0.9858
B( 17-C , 18-O ) :   1.1082 B( 17-C , 19-C ) :   1.3778 B( 18-O , 34-H ) :   0.9805
B( 19-C , 35-H ) :   0.9584

MP2 TOTAL ENERGY:    -1274.347166040 Eh
FINAL SINGLE POINT ENERGY     -1274.347166040362

DIPOLE MOMENT
-------------
                                X             Y             Z
Electronic contribution:     10.36671       9.95989       8.72771
Nuclear contribution   :    -11.86263     -11.20768      -9.76450
                        -----------------------------------------
Total Dipole Moment    :     -1.49593      -1.24779      -1.03679
                        -----------------------------------------
Magnitude (a.u.)       :      2.20674
Magnitude (Debye)      :      5.60908

Rotational constants in cm-1:     0.010986     0.009242     0.006163
Rotational constants in MHz :   329.341495   277.057335   184.764064

                             ****ORCA TERMINATED NORMALLY****
TOTAL RUN TIME: 0 days 1 hours 52 minutes 45 seconds 929 msec
