                         Program Version 4.2.0 -  RELEASE  -
|  1> ! ri-mp2 cc-pvtz cc-pvtz/c TightSCF  NoKeepInts
|  2>
|  3> %scf
|  4>   MaxCore 4096
|  5> end
|  6> *xyz  0  1
|  7>     C       15.1228119   14.1235259   17.0145737
|  8>     C       15.4163653   15.5913314   16.6585853
|  9>     O       16.6124792   15.6243556   15.8551575
| 10>     C       17.8222479   15.7134503   16.4821678
| 11>     O       18.5482515   14.7395138   16.5669735
| 12>     C       17.9944274   16.9177883   17.3567987
| 13>     C       17.5326749   18.1517043   17.0381660
| 14>     C       16.8305297   18.5660699   15.7621935
| 15>     N       17.7596307   19.2233893   17.9059961
| 16>     C       18.5307283   19.1628635   19.0375122
| 17>     S       18.8179799   20.5008750   19.9656041
| 18>     N       19.0479279   17.9338029   19.3646495
| 19>     C       18.7378483   16.6691571   18.6699489
| 20>     C       17.9232371   15.7396142   19.5653211
| 21>     C       18.3105606   14.3982661   19.7383689
| 22>     C       17.5450683   13.5280697   20.5322574
| 23>     C       16.3790901   14.0013573   21.1574642
| 24>     C       15.9872067   15.3354236   20.9842692
| 25>     O       14.8543309   15.7927454   21.5740919
| 26>     C       16.7516126   16.1996841   20.1943073
| 27>     H       15.9275160   13.7075674   17.6349070
| 28>     H       15.0375955   13.5133973   16.1066772
| 29>     H       14.1840382   14.0423858   17.5754863
| 30>     H       14.5763221   15.9830433   16.0708227
| 31>     H       15.5062641   16.1961139   17.5701217
| 32>     H       17.1966673   17.9921644   14.9013419
| 33>     H       16.9986067   19.6243491   15.5264860
| 34>     H       15.7484764   18.4070064   15.8380437
| 35>     H       17.3946012   20.1355704   17.6811961
| 36>     H       19.5915835   17.9134281   20.2182161
| 37>     H       19.6904757   16.1743297   18.4299459
| 38>     H       19.1990003   14.0228522   19.2354161
| 39>     H       17.8528349   12.4906356   20.6518639
| 40>     H       15.7827970   13.3309090   21.7675349
| 41>     H       14.5055949   15.0766754   22.1265920
| 42>     H       16.4296172   17.2285842   20.0749417
| 43> *
| 44>
| 45>                          ****END OF INPUT****

CARTESIAN COORDINATES (ANGSTROEM)
---------------------------------
  C     15.122812   14.123526   17.014574
  C     15.416365   15.591331   16.658585
  O     16.612479   15.624356   15.855158
  C     17.822248   15.713450   16.482168
  O     18.548251   14.739514   16.566973
  C     17.994427   16.917788   17.356799
  C     17.532675   18.151704   17.038166
  C     16.830530   18.566070   15.762194
  N     17.759631   19.223389   17.905996
  C     18.530728   19.162863   19.037512
  S     18.817980   20.500875   19.965604
  N     19.047928   17.933803   19.364649
  C     18.737848   16.669157   18.669949
  C     17.923237   15.739614   19.565321
  C     18.310561   14.398266   19.738369
  C     17.545068   13.528070   20.532257
  C     16.379090   14.001357   21.157464
  C     15.987207   15.335424   20.984269
  O     14.854331   15.792745   21.574092
  C     16.751613   16.199684   20.194307
  H     15.927516   13.707567   17.634907
  H     15.037596   13.513397   16.106677
  H     14.184038   14.042386   17.575486
  H     14.576322   15.983043   16.070823
  H     15.506264   16.196114   17.570122
  H     17.196667   17.992164   14.901342
  H     16.998607   19.624349   15.526486
  H     15.748476   18.407006   15.838044
  H     17.394601   20.135570   17.681196
  H     19.591583   17.913428   20.218216
  H     19.690476   16.174330   18.429946
  H     19.199000   14.022852   19.235416
  H     17.852835   12.490636   20.651864
  H     15.782797   13.330909   21.767535
  H     14.505595   15.076675   22.126592
  H     16.429617   17.228584   20.074942

 Total Charge           Charge          ....    0
 Multiplicity           Mult            ....    1
 Number of Electrons    NEL             ....  154
 Basis Dimension        Dim             ....  828

ORBITAL ENERGIES
----------------

  NO   OCC          E(Eh)            E(eV)
   0   2.0000     -91.891217     -2500.4871
   1   2.0000     -20.599125      -560.5307
   2   2.0000     -20.588395      -560.2387
   3   2.0000     -20.554053      -559.3042
   4   2.0000     -15.630748      -425.3343
   5   2.0000     -15.610988      -424.7966
   6   2.0000     -11.394956      -310.0725
   7   2.0000     -11.387085      -309.8583
   8   2.0000     -11.336083      -308.4705
   9   2.0000     -11.315582      -307.9126
  10   2.0000     -11.311181      -307.7929
  11   2.0000     -11.302907      -307.5677
  12   2.0000     -11.264766      -306.5299
  13   2.0000     -11.261914      -306.4523
  14   2.0000     -11.261236      -306.4338
  15   2.0000     -11.255168      -306.2687
  16   2.0000     -11.244883      -305.9888
  17   2.0000     -11.241394      -305.8939
  18   2.0000     -11.237771      -305.7953
  19   2.0000     -11.223101      -305.3961
  20   2.0000      -8.896293      -242.0804
  21   2.0000      -6.577869      -178.9929
  22   2.0000      -6.575858      -178.9382
  23   2.0000      -6.575272      -178.9222
  24   2.0000      -1.449736       -39.4493
  25   2.0000      -1.418929       -38.6110
  26   2.0000      -1.359071       -36.9822
  27   2.0000      -1.342139       -36.5215
  28   2.0000      -1.240516       -33.7561
  29   2.0000      -1.159942       -31.5636
  30   2.0000      -1.124307       -30.5939
  31   2.0000      -1.047269       -28.4976
  32   2.0000      -1.032298       -28.0903
  33   2.0000      -1.017357       -27.6837
  34   2.0000      -1.003406       -27.3041
  35   2.0000      -0.988597       -26.9011
  36   2.0000      -0.926717       -25.2173
  37   2.0000      -0.883311       -24.0361
  38   2.0000      -0.854111       -23.2415
  39   2.0000      -0.842281       -22.9196
  40   2.0000      -0.835705       -22.7407
  41   2.0000      -0.833184       -22.6721
  42   2.0000      -0.749822       -20.4037
  43   2.0000      -0.736146       -20.0316
  44   2.0000      -0.730779       -19.8855
  45   2.0000      -0.697331       -18.9753
  46   2.0000      -0.687721       -18.7138
  47   2.0000      -0.679586       -18.4925
  48   2.0000      -0.676549       -18.4098
  49   2.0000      -0.665111       -18.0986
  50   2.0000      -0.653215       -17.7749
  51   2.0000      -0.649239       -17.6667
  52   2.0000      -0.640134       -17.4189
  53   2.0000      -0.609419       -16.5831
  54   2.0000      -0.608181       -16.5494
  55   2.0000      -0.603483       -16.4216
  56   2.0000      -0.597708       -16.2645
  57   2.0000      -0.580807       -15.8046
  58   2.0000      -0.576956       -15.6998
  59   2.0000      -0.572049       -15.5663
  60   2.0000      -0.561315       -15.2742
  61   2.0000      -0.556199       -15.1349
  62   2.0000      -0.540609       -14.7107
  63   2.0000      -0.525871       -14.3097
  64   2.0000      -0.518242       -14.1021
  65   2.0000      -0.513733       -13.9794
  66   2.0000      -0.502324       -13.6689
  67   2.0000      -0.495096       -13.4722
  68   2.0000      -0.486845       -13.2477
  69   2.0000      -0.469514       -12.7761
  70   2.0000      -0.459335       -12.4992
  71   2.0000      -0.448301       -12.1989
  72   2.0000      -0.357384        -9.7249
  73   2.0000      -0.351223        -9.5573
  74   2.0000      -0.330544        -8.9945
  75   2.0000      -0.322856        -8.7853
  76   2.0000      -0.318973        -8.6797
  77   0.0000       0.071945         1.9577
  78   0.0000       0.103004         2.8029
  79   0.0000       0.117919         3.2087
  80   0.0000       0.128632         3.5003
  81   0.0000       0.135793         3.6951

MULLIKEN ATOMIC CHARGES
-----------------------
   0 C :   -0.262155
   1 C :   -0.004834
   2 O :   -0.357723
   3 C :    0.457740
   4 O :   -0.386105
   5 C :   -0.243753
   6 C :    0.161593
   7 C :   -0.296017
   8 N :   -0.127113
   9 C :    0.199543
  10 S :   -0.436897
  11 N :   -0.204966
  12 C :    0.064190
  13 C :    0.048523
  14 C :   -0.180754
  15 C :   -0.133217
  16 C :   -0.277110
  17 C :    0.321052
  18 O :   -0.359330
  19 C :   -0.306726
  20 H :    0.109820
  21 H :    0.105014
  22 H :    0.088744
  23 H :    0.115384
  24 H :    0.104828
  25 H :    0.136536
  26 H :    0.114495
  27 H :    0.120481
  28 H :    0.197488
  29 H :    0.195570
  30 H :    0.158485
  31 H :    0.162643
  32 H :    0.163745
  33 H :    0.131857
  34 H :    0.241791
  35 H :    0.177180
Sum of atomic charges:    0.0000000

LOEWDIN ATOMIC CHARGES
----------------------
   0 C :    0.109469
   1 C :   -0.023990
   2 O :    0.293726
   3 C :   -0.419608
   4 O :    0.130662
   5 C :   -0.094287
   6 C :   -0.080048
   7 C :    0.128397
   8 N :    0.403938
   9 C :   -0.457611
  10 S :   -0.034200
  11 N :    0.397112
  12 C :   -0.046016
  13 C :   -0.043143
  14 C :    0.022533
  15 C :    0.043613
  16 C :   -0.000347
  17 C :   -0.194301
  18 O :    0.393931
  19 C :    0.027188
  20 H :   -0.023211
  21 H :   -0.024133
  22 H :   -0.027950
  23 H :   -0.027946
  24 H :   -0.037769
  25 H :   -0.005723
  26 H :   -0.016317
  27 H :   -0.013200
  28 H :   -0.058023
  29 H :   -0.063604
  30 H :   -0.003642
  31 H :   -0.023033
  32 H :   -0.019334
  33 H :   -0.034926
  34 H :   -0.153055
  35 H :   -0.025154

  Mayer bond orders larger than 0.100000
B(  0-C ,  1-C ) :   0.9865 B(  0-C , 20-H ) :   0.9698 B(  0-C , 21-H ) :   0.9783
B(  0-C , 22-H ) :   0.9761 B(  1-C ,  2-O ) :   0.8916 B(  1-C , 23-H ) :   0.9793
B(  1-C , 24-H ) :   0.9602 B(  2-O ,  3-C ) :   1.1298 B(  3-C ,  4-O ) :   2.0700
B(  3-C ,  5-C ) :   0.9665 B(  5-C ,  6-C ) :   1.6661 B(  5-C , 12-C ) :   0.9622
B(  6-C ,  7-C ) :   0.9485 B(  6-C ,  8-N ) :   1.1388 B(  7-C , 25-H ) :   0.9698
B(  7-C , 26-H ) :   0.9844 B(  7-C , 27-H ) :   0.9638 B(  8-N ,  9-C ) :   1.1846
B(  8-N , 28-H ) :   0.9497 B(  9-C , 10-S ) :   1.6145 B(  9-C , 11-N ) :   1.2966
B( 11-N , 12-C ) :   0.9957 B( 11-N , 29-H ) :   0.9512 B( 12-C , 13-C ) :   0.9422
B( 12-C , 30-H ) :   0.9984 B( 13-C , 14-C ) :   1.3833 B( 13-C , 19-C ) :   1.3453
B( 14-C , 15-C ) :   1.3941 B( 14-C , 31-H ) :   0.9616 B( 15-C , 16-C ) :   1.3624
B( 15-C , 32-H ) :   0.9704 B( 16-C , 17-C ) :   1.3316 B( 16-C , 33-H ) :   0.9845
B( 17-C , 18-O ) :   1.1109 B( 17-C , 19-C ) :   1.3659 B( 18-O , 34-H ) :   0.9794
B( 19-C , 35-H ) :   0.9571

MP2 TOTAL ENERGY:    -1274.333247223 Eh
FINAL SINGLE POINT ENERGY     -1274.333247222862

DIPOLE MOMENT
-------------
                                X             Y             Z
Electronic contribution:     10.24279       9.03672       5.88851
Nuclear contribution   :    -11.69678      -9.95316      -6.24247
                        -----------------------------------------
Total Dipole Moment    :     -1.45399      -0.91644      -0.35396
                        -----------------------------------------
Magnitude (a.u.)       :      1.75477
Magnitude (Debye)      :      4.46028

Rotational constants in cm-1:     0.012432     0.009232     0.006794
Rotational constants in MHz :   372.714855   276.773747   203.674792

                             ****ORCA TERMINATED NORMALLY****
TOTAL RUN TIME: 0 days 1 hours 49 minutes 52 seconds 107 msec
