                         Program Version 5.0.0 -  RELEASE  -
|  1> ! ri-mp2 cc-pvtz cc-pvtz/c TightSCF NoKeepInts
|  2>
|  3> %scf
|  4>   MaxCore 4096
|  5> end
|  6> *xyz  0  1
|  7>     C       15.8963445   14.0163418   14.6409150
|  8>     C       15.0408694   14.9925524   15.4797575
|  9>     O       15.8268329   15.9513369   16.2275738
| 10>     C       16.9597583   15.6528669   16.9362457
| 11>     O       17.3738616   14.5169757   17.0938653
| 12>     C       17.5441884   16.8184602   17.6858020
| 13>     C       17.2565701   18.1271021   17.4529951
| 14>     C       16.3193571   18.7121775   16.4158387
| 15>     N       17.9209410   19.1231908   18.1770244
| 16>     C       18.9804955   18.9076452   19.0178424
| 17>     S       19.7999072   20.1574688   19.7265535
| 18>     N       19.3262186   17.5993137   19.2397530
| 19>     C       18.5466272   16.4343623   18.7814880
| 20>     C       17.8445262   15.7653414   19.9606833
| 21>     C       18.0287418   14.3934175   20.2138695
| 22>     C       17.3848435   13.7714076   21.2966565
| 23>     C       16.5483725   14.5270944   22.1355782
| 24>     C       16.3589724   15.8928966   21.8850497
| 25>     O       15.5471440   16.6240966   22.6898941
| 26>     C       17.0009489   16.5091093   20.8063253
| 27>     H       16.7089249   14.5461746   14.1287319
| 28>     H       15.2752578   13.5301041   13.8790968
| 29>     H       16.3286287   13.2217407   15.2609847
| 30>     H       14.3610065   15.5396540   14.8141993
| 31>     H       14.4233556   14.4074705   16.1740374
| 32>     H       15.2769442   18.4671391   16.6549452
| 33>     H       16.5425120   18.3117753   15.4191586
| 34>     H       16.3919592   19.8043069   16.3464854
| 35>     H       17.6812961   20.0902726   18.0282262
| 36>     H       20.0900175   17.4643622   19.8895510
| 37>     H       19.2548963   15.7125315   18.3496461
| 38>     H       18.6611999   13.8028116   19.5555248
| 39>     H       17.5307168   12.7079555   21.4769449
| 40>     H       16.0474685   14.0502914   22.9713858
| 41>     H       15.2244516   16.0343073   23.3875165
| 42>     H       16.8428433   17.5679452   20.6338544
| 43> *
| 44>
| 45>                          ****END OF INPUT****

CARTESIAN COORDINATES (ANGSTROEM)
---------------------------------
  C     15.896344   14.016342   14.640915
  C     15.040869   14.992552   15.479757
  O     15.826833   15.951337   16.227574
  C     16.959758   15.652867   16.936246
  O     17.373862   14.516976   17.093865
  C     17.544188   16.818460   17.685802
  C     17.256570   18.127102   17.452995
  C     16.319357   18.712177   16.415839
  N     17.920941   19.123191   18.177024
  C     18.980495   18.907645   19.017842
  S     19.799907   20.157469   19.726553
  N     19.326219   17.599314   19.239753
  C     18.546627   16.434362   18.781488
  C     17.844526   15.765341   19.960683
  C     18.028742   14.393417   20.213870
  C     17.384843   13.771408   21.296656
  C     16.548372   14.527094   22.135578
  C     16.358972   15.892897   21.885050
  O     15.547144   16.624097   22.689894
  C     17.000949   16.509109   20.806325
  H     16.708925   14.546175   14.128732
  H     15.275258   13.530104   13.879097
  H     16.328629   13.221741   15.260985
  H     14.361006   15.539654   14.814199
  H     14.423356   14.407471   16.174037
  H     15.276944   18.467139   16.654945
  H     16.542512   18.311775   15.419159
  H     16.391959   19.804307   16.346485
  H     17.681296   20.090273   18.028226
  H     20.090017   17.464362   19.889551
  H     19.254896   15.712532   18.349646
  H     18.661200   13.802812   19.555525
  H     17.530717   12.707955   21.476945
  H     16.047469   14.050291   22.971386
  H     15.224452   16.034307   23.387517
  H     16.842843   17.567945   20.633854

 Total Charge           Charge          ....    0
 Multiplicity           Mult            ....    1
 Number of Electrons    NEL             ....  154
 Basis Dimension        Dim             ....  828

ORBITAL ENERGIES
----------------

  NO   OCC          E(Eh)            E(eV)
   0   2.0000     -91.887432     -2500.3841
   1   2.0000     -20.602607      -560.6254
   2   2.0000     -20.590252      -560.2892
   3   2.0000     -20.544354      -559.0403
   4   2.0000     -15.627625      -425.2493
   5   2.0000     -15.605918      -424.6586
   6   2.0000     -11.397795      -310.1498
   7   2.0000     -11.382166      -309.7245
   8   2.0000     -11.335664      -308.4591
   9   2.0000     -11.306008      -307.6521
  10   2.0000     -11.305454      -307.6370
  11   2.0000     -11.304468      -307.6102
  12   2.0000     -11.260022      -306.4008
  13   2.0000     -11.258332      -306.3548
  14   2.0000     -11.252025      -306.1832
  15   2.0000     -11.246197      -306.0246
  16   2.0000     -11.235818      -305.7422
  17   2.0000     -11.231920      -305.6361
  18   2.0000     -11.228931      -305.5548
  19   2.0000     -11.225769      -305.4687
  20   2.0000      -8.892499      -241.9772
  21   2.0000      -6.574077      -178.8897
  22   2.0000      -6.572070      -178.8351
  23   2.0000      -6.571485      -178.8192
  24   2.0000      -1.448910       -39.4268
  25   2.0000      -1.409981       -38.3675
  26   2.0000      -1.357056       -36.9274
  27   2.0000      -1.338666       -36.4270
  28   2.0000      -1.236188       -33.6384
  29   2.0000      -1.150653       -31.3109
  30   2.0000      -1.118202       -30.4278
  31   2.0000      -1.041310       -28.3355
  32   2.0000      -1.034323       -28.1454
  33   2.0000      -1.008050       -27.4304
  34   2.0000      -0.996281       -27.1102
  35   2.0000      -0.981866       -26.7179
  36   2.0000      -0.920606       -25.0510
  37   2.0000      -0.896983       -24.4081
  38   2.0000      -0.847336       -23.0572
  39   2.0000      -0.834649       -22.7120
  40   2.0000      -0.826450       -22.4889
  41   2.0000      -0.816588       -22.2205
  42   2.0000      -0.746122       -20.3030
  43   2.0000      -0.730054       -19.8658
  44   2.0000      -0.723615       -19.6906
  45   2.0000      -0.689823       -18.7710
  46   2.0000      -0.684035       -18.6135
  47   2.0000      -0.678138       -18.4531
  48   2.0000      -0.669919       -18.2294
  49   2.0000      -0.664625       -18.0854
  50   2.0000      -0.645166       -17.5559
  51   2.0000      -0.641807       -17.4645
  52   2.0000      -0.632968       -17.2239
  53   2.0000      -0.609887       -16.5959
  54   2.0000      -0.599043       -16.3008
  55   2.0000      -0.598099       -16.2751
  56   2.0000      -0.593373       -16.1465
  57   2.0000      -0.585136       -15.9223
  58   2.0000      -0.571547       -15.5526
  59   2.0000      -0.566282       -15.4093
  60   2.0000      -0.559308       -15.2195
  61   2.0000      -0.543682       -14.7943
  62   2.0000      -0.536255       -14.5922
  63   2.0000      -0.522516       -14.2184
  64   2.0000      -0.516071       -14.0430
  65   2.0000      -0.511016       -13.9054
  66   2.0000      -0.500685       -13.6243
  67   2.0000      -0.494481       -13.4555
  68   2.0000      -0.479883       -13.0583
  69   2.0000      -0.461983       -12.5712
  70   2.0000      -0.455678       -12.3996
  71   2.0000      -0.448929       -12.2160
  72   2.0000      -0.353467        -9.6183
  73   2.0000      -0.342619        -9.3231
  74   2.0000      -0.326546        -8.8858
  75   2.0000      -0.314762        -8.5651
  76   2.0000      -0.312408        -8.5011
  77   0.0000       0.077062         2.0970
  78   0.0000       0.115051         3.1307
  79   0.0000       0.120718         3.2849
  80   0.0000       0.137004         3.7281
  81   0.0000       0.140489         3.8229

MULLIKEN ATOMIC CHARGES
-----------------------
   0 C :   -0.302736
   1 C :    0.047289
   2 O :   -0.349416
   3 C :    0.449461
   4 O :   -0.435181
   5 C :   -0.165889
   6 C :    0.143287
   7 C :   -0.285422
   8 N :   -0.120610
   9 C :    0.200762
  10 S :   -0.440054
  11 N :   -0.195886
  12 C :    0.031748
  13 C :    0.059181
  14 C :   -0.161018
  15 C :   -0.133926
  16 C :   -0.278772
  17 C :    0.311623
  18 O :   -0.359220
  19 C :   -0.270918
  20 H :    0.092760
  21 H :    0.096554
  22 H :    0.129116
  23 H :    0.101695
  24 H :    0.094737
  25 H :    0.129709
  26 H :    0.123020
  27 H :    0.102474
  28 H :    0.196564
  29 H :    0.193129
  30 H :    0.153338
  31 H :    0.152790
  32 H :    0.158373
  33 H :    0.127482
  34 H :    0.239825
  35 H :    0.164131
Sum of atomic charges:    0.0000000

LOEWDIN ATOMIC CHARGES
----------------------
   0 C :    0.103418
   1 C :   -0.010443
   2 O :    0.297973
   3 C :   -0.414009
   4 O :    0.109004
   5 C :   -0.089972
   6 C :   -0.065092
   7 C :    0.124445
   8 N :    0.404714
   9 C :   -0.459264
  10 S :   -0.036593
  11 N :    0.397937
  12 C :   -0.046547
  13 C :   -0.038437
  14 C :    0.021891
  15 C :    0.040732
  16 C :   -0.002343
  17 C :   -0.192326
  18 O :    0.392968
  19 C :    0.028843
  20 H :   -0.028534
  21 H :   -0.028182
  22 H :   -0.024663
  23 H :   -0.025395
  24 H :   -0.027508
  25 H :   -0.009221
  26 H :   -0.009605
  27 H :   -0.021318
  28 H :   -0.059398
  29 H :   -0.063679
  30 H :   -0.005423
  31 H :   -0.025609
  32 H :   -0.021478
  33 H :   -0.036573
  34 H :   -0.155099
  35 H :   -0.025215

  Mayer bond orders larger than 0.100000
B(  0-C ,  1-C ) :   0.9667 B(  0-C , 20-H ) :   0.9762 B(  0-C , 21-H ) :   0.9769
B(  0-C , 22-H ) :   0.9710 B(  1-C ,  2-O ) :   0.9032 B(  1-C , 23-H ) :   0.9838
B(  1-C , 24-H ) :   0.9803 B(  2-O ,  3-C ) :   1.1645 B(  3-C ,  4-O ) :   1.9595
B(  3-C ,  5-C ) :   1.0645 B(  5-C ,  6-C ) :   1.6430 B(  5-C , 12-C ) :   0.9664
B(  6-C ,  7-C ) :   0.9553 B(  6-C ,  8-N ) :   1.1516 B(  7-C , 25-H ) :   0.9630
B(  7-C , 26-H ) :   0.9661 B(  7-C , 27-H ) :   0.9922 B(  8-N ,  9-C ) :   1.1777
B(  8-N , 28-H ) :   0.9491 B(  9-C , 10-S ) :   1.6102 B(  9-C , 11-N ) :   1.3047
B( 11-N , 12-C ) :   0.9939 B( 11-N , 29-H ) :   0.9521 B( 12-C , 13-C ) :   0.9477
B( 12-C , 30-H ) :   1.0005 B( 13-C , 14-C ) :   1.3749 B( 13-C , 19-C ) :   1.3701
B( 14-C , 15-C ) :   1.3949 B( 14-C , 31-H ) :   0.9653 B( 15-C , 16-C ) :   1.3627
B( 15-C , 32-H ) :   0.9716 B( 16-C , 17-C ) :   1.3315 B( 16-C , 33-H ) :   0.9862
B( 17-C , 18-O ) :   1.1078 B( 17-C , 19-C ) :   1.3797 B( 18-O , 34-H ) :   0.9808
B( 19-C , 35-H ) :   0.9583

MP2 TOTAL ENERGY:    -1274.342113737 Eh
FINAL SINGLE POINT ENERGY     -1274.342113736869

DIPOLE MOMENT
-------------
                                X             Y             Z
Electronic contribution:      9.32854       9.48999      12.02636
Nuclear contribution   :    -11.00588     -10.59762     -13.06402
                        -----------------------------------------
Total Dipole Moment    :     -1.67735      -1.10763      -1.03766
                        -----------------------------------------
Magnitude (a.u.)       :      2.26209
Magnitude (Debye)      :      5.74979

Rotational constants in cm-1:     0.010562     0.008772     0.005754
Rotational constants in MHz :   316.646311   262.967780   172.489292

                             ****ORCA TERMINATED NORMALLY****
TOTAL RUN TIME: 0 days 1 hours 52 minutes 14 seconds 655 msec
