                         Program Version 5.0.0 -  RELEASE  -
|  1> ! ri-mp2 cc-pvtz cc-pvtz/c TightSCF NoKeepInts
|  2>
|  3> %scf
|  4>   MaxCore 4096
|  5> end
|  6> *xyz  0  1
|  7>     C       15.7339939   13.0487341   16.5931747
|  8>     C       15.7705556   14.3857078   15.8337111
|  9>     O       16.5677304   15.2919301   16.6157119
| 10>     C       16.2328909   16.6157651   16.6926545
| 11>     O       15.2854708   17.0868806   16.0863401
| 12>     C       17.2323369   17.4172877   17.4804680
| 13>     C       17.1759641   18.7705737   17.5686282
| 14>     C       16.1564153   19.6895280   16.9302515
| 15>     N       18.1501064   19.4676891   18.2895902
| 16>     C       19.2532542   18.9003063   18.8692417
| 17>     S       20.4048524   19.8090910   19.6333484
| 18>     N       19.3563139   17.5354444   18.7834643
| 19>     C       18.3283315   16.6376677   18.2256400
| 20>     C       17.7479056   15.7632442   19.3334935
| 21>     C       17.9576445   14.3714103   19.3281271
| 22>     C       17.4193731   13.5630583   20.3434384
| 23>     C       16.6682413   14.1513306   21.3752472
| 24>     C       16.4615463   15.5376409   21.3864204
| 25>     O       15.7374255   16.1086232   22.3817535
| 26>     C       16.9978718   16.3393917   20.3741277
| 27>     H       16.7448042   12.6365939   16.7002028
| 28>     H       15.1184700   12.3171074   16.0559030
| 29>     H       15.3088162   13.1865842   17.5955819
| 30>     H       16.2018365   14.2587320   14.8323503
| 31>     H       14.7392707   14.7492872   15.7269948
| 32>     H       16.1642346   19.5757775   15.8387638
| 33>     H       16.3330101   20.7480822   17.1539885
| 34>     H       15.1449598   19.4425339   17.2775599
| 35>     H       18.0913863   20.4707970   18.3627485
| 36>     H       20.1601871   17.1423367   19.2557992
| 37>     H       18.8291647   15.9864328   17.4956131
| 38>     H       18.5319962   13.9134661   18.5274329
| 39>     H       17.5838781   12.4871523   20.3281138
| 40>     H       16.2504011   13.5314644   22.1616130
| 41>     H       15.4746352   15.4034984   22.9920593
| 42>     H       16.8317249   17.4108494   20.4044427
| 43> *
| 44>
| 45>                          ****END OF INPUT****

CARTESIAN COORDINATES (ANGSTROEM)
---------------------------------
  C     15.733994   13.048734   16.593175
  C     15.770556   14.385708   15.833711
  O     16.567730   15.291930   16.615712
  C     16.232891   16.615765   16.692654
  O     15.285471   17.086881   16.086340
  C     17.232337   17.417288   17.480468
  C     17.175964   18.770574   17.568628
  C     16.156415   19.689528   16.930252
  N     18.150106   19.467689   18.289590
  C     19.253254   18.900306   18.869242
  S     20.404852   19.809091   19.633348
  N     19.356314   17.535444   18.783464
  C     18.328331   16.637668   18.225640
  C     17.747906   15.763244   19.333493
  C     17.957645   14.371410   19.328127
  C     17.419373   13.563058   20.343438
  C     16.668241   14.151331   21.375247
  C     16.461546   15.537641   21.386420
  O     15.737426   16.108623   22.381753
  C     16.997872   16.339392   20.374128
  H     16.744804   12.636594   16.700203
  H     15.118470   12.317107   16.055903
  H     15.308816   13.186584   17.595582
  H     16.201836   14.258732   14.832350
  H     14.739271   14.749287   15.726995
  H     16.164235   19.575778   15.838764
  H     16.333010   20.748082   17.153989
  H     15.144960   19.442534   17.277560
  H     18.091386   20.470797   18.362748
  H     20.160187   17.142337   19.255799
  H     18.829165   15.986433   17.495613
  H     18.531996   13.913466   18.527433
  H     17.583878   12.487152   20.328114
  H     16.250401   13.531464   22.161613
  H     15.474635   15.403498   22.992059
  H     16.831725   17.410849   20.404443

 Total Charge           Charge          ....    0
 Multiplicity           Mult            ....    1
 Number of Electrons    NEL             ....  154
 Basis Dimension        Dim             ....  828

ORBITAL ENERGIES
----------------

  NO   OCC          E(Eh)            E(eV)
   0   2.0000     -91.888474     -2500.4125
   1   2.0000     -20.602890      -560.6332
   2   2.0000     -20.595624      -560.4354
   3   2.0000     -20.541328      -558.9580
   4   2.0000     -15.628577      -425.2752
   5   2.0000     -15.607870      -424.7117
   6   2.0000     -11.395065      -310.0755
   7   2.0000     -11.383598      -309.7634
   8   2.0000     -11.335580      -308.4568
   9   2.0000     -11.312677      -307.8336
  10   2.0000     -11.308291      -307.7142
  11   2.0000     -11.295973      -307.3790
  12   2.0000     -11.258780      -306.3670
  13   2.0000     -11.258559      -306.3610
  14   2.0000     -11.253980      -306.2364
  15   2.0000     -11.251584      -306.1712
  16   2.0000     -11.242398      -305.9212
  17   2.0000     -11.237766      -305.7952
  18   2.0000     -11.237233      -305.7807
  19   2.0000     -11.229255      -305.5636
  20   2.0000      -8.893541      -242.0055
  21   2.0000      -6.575117      -178.9180
  22   2.0000      -6.573111      -178.8634
  23   2.0000      -6.572525      -178.8475
  24   2.0000      -1.451874       -39.5075
  25   2.0000      -1.415303       -38.5123
  26   2.0000      -1.354988       -36.8711
  27   2.0000      -1.339575       -36.4517
  28   2.0000      -1.238046       -33.6889
  29   2.0000      -1.156862       -31.4798
  30   2.0000      -1.120008       -30.4770
  31   2.0000      -1.043205       -28.3871
  32   2.0000      -1.039580       -28.2884
  33   2.0000      -1.014228       -27.5985
  34   2.0000      -0.995202       -27.0808
  35   2.0000      -0.984036       -26.7770
  36   2.0000      -0.921924       -25.0868
  37   2.0000      -0.889448       -24.2031
  38   2.0000      -0.846273       -23.0283
  39   2.0000      -0.836624       -22.7657
  40   2.0000      -0.833144       -22.6710
  41   2.0000      -0.816788       -22.2259
  42   2.0000      -0.765239       -20.8232
  43   2.0000      -0.731355       -19.9012
  44   2.0000      -0.721182       -19.6244
  45   2.0000      -0.695230       -18.9182
  46   2.0000      -0.688302       -18.7297
  47   2.0000      -0.679498       -18.4901
  48   2.0000      -0.672350       -18.2956
  49   2.0000      -0.665630       -18.1127
  50   2.0000      -0.646020       -17.5791
  51   2.0000      -0.643831       -17.5195
  52   2.0000      -0.634702       -17.2711
  53   2.0000      -0.605818       -16.4851
  54   2.0000      -0.600247       -16.3335
  55   2.0000      -0.598117       -16.2756
  56   2.0000      -0.592772       -16.1301
  57   2.0000      -0.578039       -15.7293
  58   2.0000      -0.570233       -15.5168
  59   2.0000      -0.568038       -15.4571
  60   2.0000      -0.563017       -15.3205
  61   2.0000      -0.549908       -14.9638
  62   2.0000      -0.538082       -14.6419
  63   2.0000      -0.526242       -14.3198
  64   2.0000      -0.524211       -14.2645
  65   2.0000      -0.512881       -13.9562
  66   2.0000      -0.501105       -13.6358
  67   2.0000      -0.496941       -13.5224
  68   2.0000      -0.485002       -13.1976
  69   2.0000      -0.463379       -12.6092
  70   2.0000      -0.458635       -12.4801
  71   2.0000      -0.448194       -12.1960
  72   2.0000      -0.353875        -9.6294
  73   2.0000      -0.348796        -9.4912
  74   2.0000      -0.327816        -8.9203
  75   2.0000      -0.320175        -8.7124
  76   2.0000      -0.315587        -8.5876
  77   0.0000       0.076917         2.0930
  78   0.0000       0.107284         2.9193
  79   0.0000       0.124608         3.3908
  80   0.0000       0.133013         3.6195
  81   0.0000       0.137312         3.7365

MULLIKEN ATOMIC CHARGES
-----------------------
   0 C :   -0.283660
   1 C :    0.032810
   2 O :   -0.343878
   3 C :    0.470351
   4 O :   -0.434441
   5 C :   -0.225004
   6 C :    0.150337
   7 C :   -0.274319
   8 N :   -0.120153
   9 C :    0.210729
  10 S :   -0.440515
  11 N :   -0.203650
  12 C :    0.050063
  13 C :    0.066024
  14 C :   -0.185103
  15 C :   -0.131190
  16 C :   -0.279227
  17 C :    0.316454
  18 O :   -0.356789
  19 C :   -0.268755
  20 H :    0.088610
  21 H :    0.105145
  22 H :    0.108028
  23 H :    0.090911
  24 H :    0.111223
  25 H :    0.131413
  26 H :    0.094690
  27 H :    0.131576
  28 H :    0.197190
  29 H :    0.194609
  30 H :    0.149192
  31 H :    0.151342
  32 H :    0.160599
  33 H :    0.130122
  34 H :    0.240451
  35 H :    0.164815
Sum of atomic charges:    0.0000000

LOEWDIN ATOMIC CHARGES
----------------------
   0 C :    0.104400
   1 C :   -0.012605
   2 O :    0.310190
   3 C :   -0.412650
   4 O :    0.094988
   5 C :   -0.094424
   6 C :   -0.059254
   7 C :    0.131420
   8 N :    0.406449
   9 C :   -0.456677
  10 S :   -0.035991
  11 N :    0.396601
  12 C :   -0.052951
  13 C :   -0.039822
  14 C :    0.016791
  15 C :    0.040061
  16 C :   -0.001617
  17 C :   -0.189761
  18 O :    0.394988
  19 C :    0.031677
  20 H :   -0.031479
  21 H :   -0.025381
  22 H :   -0.023694
  23 H :   -0.031192
  24 H :   -0.027397
  25 H :   -0.003987
  26 H :   -0.023520
  27 H :   -0.004558
  28 H :   -0.057631
  29 H :   -0.064489
  30 H :   -0.012110
  31 H :   -0.031333
  32 H :   -0.021713
  33 H :   -0.035582
  34 H :   -0.154112
  35 H :   -0.023637

  Mayer bond orders larger than 0.100000
B(  0-C ,  1-C ) :   0.9729 B(  0-C , 20-H ) :   0.9789 B(  0-C , 21-H ) :   0.9782
B(  0-C , 22-H ) :   0.9735 B(  1-C ,  2-O ) :   0.8984 B(  1-C , 23-H ) :   0.9820
B(  1-C , 24-H ) :   0.9761 B(  2-O ,  3-C ) :   1.1814 B(  3-C ,  4-O ) :   1.9697
B(  3-C ,  5-C ) :   1.0575 B(  5-C ,  6-C ) :   1.6563 B(  5-C , 12-C ) :   0.9722
B(  6-C ,  7-C ) :   0.9675 B(  6-C ,  8-N ) :   1.1645 B(  7-C , 25-H ) :   0.9597
B(  7-C , 26-H ) :   0.9902 B(  7-C , 27-H ) :   0.9613 B(  8-N ,  9-C ) :   1.1833
B(  8-N , 28-H ) :   0.9479 B(  9-C , 10-S ) :   1.6071 B(  9-C , 11-N ) :   1.3049
B( 11-N , 12-C ) :   0.9897 B( 11-N , 29-H ) :   0.9514 B( 12-C , 13-C ) :   0.9364
B( 12-C , 30-H ) :   1.0031 B( 13-C , 14-C ) :   1.3575 B( 13-C , 19-C ) :   1.3806
B( 14-C , 15-C ) :   1.3896 B( 14-C , 31-H ) :   0.9705 B( 15-C , 16-C ) :   1.3631
B( 15-C , 32-H ) :   0.9703 B( 16-C , 17-C ) :   1.3309 B( 16-C , 33-H ) :   0.9851
B( 17-C , 18-O ) :   1.1095 B( 17-C , 19-C ) :   1.3737 B( 18-O , 34-H ) :   0.9800
B( 19-C , 35-H ) :   0.9583

MP2 TOTAL ENERGY:    -1274.350804290 Eh
FINAL SINGLE POINT ENERGY     -1274.350804290107

DIPOLE MOMENT
-------------
                                X             Y             Z
Electronic contribution:      9.08905      11.81121       6.75764
Nuclear contribution   :    -10.14764     -13.52651      -7.13155
                        -----------------------------------------
Total Dipole Moment    :     -1.05860      -1.71530      -0.37391
                        -----------------------------------------
Magnitude (a.u.)       :      2.05005
Magnitude (Debye)      :      5.21081

Rotational constants in cm-1:     0.011746     0.008527     0.006132
Rotational constants in MHz :   352.130881   255.630652   183.839870

                             ****ORCA TERMINATED NORMALLY****
TOTAL RUN TIME: 0 days 1 hours 58 minutes 25 seconds 73 msec
