                         Program Version 4.2.0 -  RELEASE  -
|  1> ! ri-mp2 cc-pvtz cc-pvtz/c TightSCF  NoKeepInts
|  2>
|  3> %scf
|  4>   MaxCore 4096
|  5> end
|  6> *xyz  0  1
|  7>     C       15.3773451   13.4237828   16.1772839
|  8>     C       16.2944570   14.4615685   16.8440847
|  9>     O       16.7095183   15.3725283   15.8183692
| 10>     C       16.8582706   16.7266806   15.9782780
| 11>     O       16.5701543   17.4401865   15.0361040
| 12>     C       17.4371715   17.2798946   17.2642145
| 13>     C       17.3406799   18.6067250   17.5529714
| 14>     C       16.5296763   19.6572052   16.8240648
| 15>     N       18.1005668   19.1542685   18.5930286
| 16>     C       19.1907208   18.5348559   19.1461029
| 17>     S       20.2372519   19.3214887   20.1567465
| 18>     N       19.3804960   17.2244106   18.7864065
| 19>     C       18.3316589   16.3997190   18.1616729
| 20>     C       17.5976625   15.6765928   19.2920764
| 21>     C       18.0858877   14.4380787   19.7519459
| 22>     C       17.4391430   13.7527667   20.7937203
| 23>     C       16.2978227   14.3133524   21.3905298
| 24>     C       15.8171431   15.5531739   20.9495856
| 25>     O       14.7186120   16.1011399   21.5264234
| 26>     C       16.4611418   16.2322236   19.9106071
| 27>     H       15.0153111   12.6980452   16.9155861
| 28>     H       15.9168128   12.8779627   15.3931264
| 29>     H       14.5076784   13.9131312   15.7205870
| 30>     H       15.7144790   14.9814233   17.6168324
| 31>     H       17.1573472   13.9564400   17.2927260
| 32>     H       15.5252762   19.2833864   16.5887352
| 33>     H       17.0106831   19.9208503   15.8729755
| 34>     H       16.4060587   20.5785892   17.4051242
| 35>     H       17.9839669   20.1249989   18.8368994
| 36>     H       20.1861183   16.7849343   19.2121859
| 37>     H       18.8248429   15.6528446   17.5233996
| 38>     H       18.9747521   14.0044787   19.3007702
| 39>     H       17.8265378   12.7960446   21.1410596
| 40>     H       15.7967919   13.7897095   22.1984527
| 41>     H       14.4529269   15.5227713   22.2577461
| 42>     H       16.0720365   17.1957477   19.6035772
| 43> *
| 44>
| 45>                          ****END OF INPUT****

CARTESIAN COORDINATES (ANGSTROEM)
---------------------------------
  C     15.377345   13.423783   16.177284
  C     16.294457   14.461568   16.844085
  O     16.709518   15.372528   15.818369
  C     16.858271   16.726681   15.978278
  O     16.570154   17.440186   15.036104
  C     17.437172   17.279895   17.264214
  C     17.340680   18.606725   17.552971
  C     16.529676   19.657205   16.824065
  N     18.100567   19.154269   18.593029
  C     19.190721   18.534856   19.146103
  S     20.237252   19.321489   20.156747
  N     19.380496   17.224411   18.786406
  C     18.331659   16.399719   18.161673
  C     17.597662   15.676593   19.292076
  C     18.085888   14.438079   19.751946
  C     17.439143   13.752767   20.793720
  C     16.297823   14.313352   21.390530
  C     15.817143   15.553174   20.949586
  O     14.718612   16.101140   21.526423
  C     16.461142   16.232224   19.910607
  H     15.015311   12.698045   16.915586
  H     15.916813   12.877963   15.393126
  H     14.507678   13.913131   15.720587
  H     15.714479   14.981423   17.616832
  H     17.157347   13.956440   17.292726
  H     15.525276   19.283386   16.588735
  H     17.010683   19.920850   15.872976
  H     16.406059   20.578589   17.405124
  H     17.983967   20.124999   18.836899
  H     20.186118   16.784934   19.212186
  H     18.824843   15.652845   17.523400
  H     18.974752   14.004479   19.300770
  H     17.826538   12.796045   21.141060
  H     15.796792   13.789709   22.198453
  H     14.452927   15.522771   22.257746
  H     16.072036   17.195748   19.603577

 Total Charge           Charge          ....    0
 Multiplicity           Mult            ....    1
 Number of Electrons    NEL             ....  154
 Basis Dimension        Dim             ....  828

ORBITAL ENERGIES
----------------

  NO   OCC          E(Eh)            E(eV)
   0   2.0000     -91.892852     -2500.5316
   1   2.0000     -20.604999      -560.6905
   2   2.0000     -20.593292      -560.3720
   3   2.0000     -20.538424      -558.8789
   4   2.0000     -15.632913      -425.3932
   5   2.0000     -15.612362      -424.8340
   6   2.0000     -11.393870      -310.0430
   7   2.0000     -11.386799      -309.8505
   8   2.0000     -11.338737      -308.5427
   9   2.0000     -11.322897      -308.1117
  10   2.0000     -11.319982      -308.0324
  11   2.0000     -11.298259      -307.4412
  12   2.0000     -11.270186      -306.6774
  13   2.0000     -11.265072      -306.5382
  14   2.0000     -11.263357      -306.4915
  15   2.0000     -11.253337      -306.2189
  16   2.0000     -11.250407      -306.1391
  17   2.0000     -11.246966      -306.0455
  18   2.0000     -11.245603      -306.0084
  19   2.0000     -11.227802      -305.5240
  20   2.0000      -8.897814      -242.1218
  21   2.0000      -6.579366      -179.0337
  22   2.0000      -6.577387      -178.9798
  23   2.0000      -6.576780      -178.9633
  24   2.0000      -1.443957       -39.2921
  25   2.0000      -1.424589       -38.7650
  26   2.0000      -1.352663       -36.8078
  27   2.0000      -1.345160       -36.6037
  28   2.0000      -1.243779       -33.8449
  29   2.0000      -1.165536       -31.7158
  30   2.0000      -1.122311       -30.5396
  31   2.0000      -1.049166       -28.5493
  32   2.0000      -1.036221       -28.1970
  33   2.0000      -1.024424       -27.8760
  34   2.0000      -1.001253       -27.2455
  35   2.0000      -0.987552       -26.8727
  36   2.0000      -0.928646       -25.2697
  37   2.0000      -0.879824       -23.9412
  38   2.0000      -0.852995       -23.2112
  39   2.0000      -0.850362       -23.1395
  40   2.0000      -0.842147       -22.9160
  41   2.0000      -0.833794       -22.6887
  42   2.0000      -0.764269       -20.7968
  43   2.0000      -0.738931       -20.1073
  44   2.0000      -0.717340       -19.5198
  45   2.0000      -0.705051       -19.1854
  46   2.0000      -0.697127       -18.9698
  47   2.0000      -0.677529       -18.4365
  48   2.0000      -0.673496       -18.3267
  49   2.0000      -0.668836       -18.1999
  50   2.0000      -0.654125       -17.7996
  51   2.0000      -0.646201       -17.5840
  52   2.0000      -0.643040       -17.4980
  53   2.0000      -0.617340       -16.7987
  54   2.0000      -0.607919       -16.5423
  55   2.0000      -0.603208       -16.4141
  56   2.0000      -0.588223       -16.0064
  57   2.0000      -0.584836       -15.9142
  58   2.0000      -0.573903       -15.6167
  59   2.0000      -0.570305       -15.5188
  60   2.0000      -0.564941       -15.3728
  61   2.0000      -0.550249       -14.9730
  62   2.0000      -0.540371       -14.7042
  63   2.0000      -0.534738       -14.5510
  64   2.0000      -0.521350       -14.1866
  65   2.0000      -0.517260       -14.0754
  66   2.0000      -0.511468       -13.9177
  67   2.0000      -0.503688       -13.7061
  68   2.0000      -0.482723       -13.1356
  69   2.0000      -0.465229       -12.6595
  70   2.0000      -0.451509       -12.2862
  71   2.0000      -0.443315       -12.0632
  72   2.0000      -0.363338        -9.8869
  73   2.0000      -0.356974        -9.7138
  74   2.0000      -0.333722        -9.0810
  75   2.0000      -0.328417        -8.9367
  76   2.0000      -0.319138        -8.6842
  77   0.0000       0.072676         1.9776
  78   0.0000       0.098418         2.6781
  79   0.0000       0.115103         3.1321
  80   0.0000       0.123456         3.3594
  81   0.0000       0.129182         3.5152

MULLIKEN ATOMIC CHARGES
-----------------------
   0 C :   -0.256304
   1 C :    0.022917
   2 O :   -0.309737
   3 C :    0.441104
   4 O :   -0.390036
   5 C :   -0.259516
   6 C :    0.130308
   7 C :   -0.270289
   8 N :   -0.121519
   9 C :    0.216370
  10 S :   -0.434589
  11 N :   -0.204587
  12 C :    0.051746
  13 C :    0.055394
  14 C :   -0.227657
  15 C :   -0.129504
  16 C :   -0.275964
  17 C :    0.316744
  18 O :   -0.355627
  19 C :   -0.254069
  20 H :    0.087664
  21 H :    0.100337
  22 H :    0.102579
  23 H :    0.101766
  24 H :    0.083790
  25 H :    0.124556
  26 H :    0.143612
  27 H :    0.093364
  28 H :    0.199646
  29 H :    0.189432
  30 H :    0.159435
  31 H :    0.156210
  32 H :    0.163176
  33 H :    0.132915
  34 H :    0.243135
  35 H :    0.173200
Sum of atomic charges:   -0.0000000

LOEWDIN ATOMIC CHARGES
----------------------
   0 C :    0.111174
   1 C :   -0.032775
   2 O :    0.307184
   3 C :   -0.422680
   4 O :    0.115693
   5 C :   -0.097785
   6 C :   -0.057587
   7 C :    0.129202
   8 N :    0.409458
   9 C :   -0.453755
  10 S :   -0.029023
  11 N :    0.396087
  12 C :   -0.053469
  13 C :   -0.036952
  14 C :    0.005339
  15 C :    0.044088
  16 C :   -0.000830
  17 C :   -0.189096
  18 O :    0.396766
  19 C :    0.027248
  20 H :   -0.026513
  21 H :   -0.025806
  22 H :   -0.023550
  23 H :   -0.030801
  24 H :   -0.036205
  25 H :   -0.006459
  26 H :   -0.001443
  27 H :   -0.023185
  28 H :   -0.056515
  29 H :   -0.067873
  30 H :   -0.005275
  31 H :   -0.032137
  32 H :   -0.018505
  33 H :   -0.034041
  34 H :   -0.151313
  35 H :   -0.028667

  Mayer bond orders larger than 0.100000
B(  0-C ,  1-C ) :   0.9830 B(  0-C , 20-H ) :   0.9778 B(  0-C , 21-H ) :   0.9804
B(  0-C , 22-H ) :   0.9789 B(  1-C ,  2-O ) :   0.8999 B(  1-C , 23-H ) :   0.9637
B(  1-C , 24-H ) :   0.9712 B(  2-O ,  3-C ) :   1.1883 B(  3-C ,  4-O ) :   2.0672
B(  3-C ,  5-C ) :   0.9921 B(  5-C ,  6-C ) :   1.6487 B(  5-C , 12-C ) :   0.9608
B(  6-C ,  7-C ) :   0.9778 B(  6-C ,  8-N ) :   1.1471 B(  7-C , 25-H ) :   0.9673
B(  7-C , 26-H ) :   0.9522 B(  7-C , 27-H ) :   0.9858 B(  8-N ,  9-C ) :   1.1870
B(  8-N , 28-H ) :   0.9489 B(  9-C , 10-S ) :   1.6149 B(  9-C , 11-N ) :   1.2934
B( 11-N , 12-C ) :   0.9537 B( 11-N , 29-H ) :   0.9540 B( 12-C , 13-C ) :   0.9615
B( 12-C , 30-H ) :   0.9991 B( 13-C , 14-C ) :   1.3389 B( 13-C , 19-C ) :   1.3656
B( 14-C , 15-C ) :   1.4063 B( 14-C , 31-H ) :   0.9720 B( 15-C , 16-C ) :   1.3635
B( 15-C , 32-H ) :   0.9693 B( 16-C , 17-C ) :   1.3343 B( 16-C , 33-H ) :   0.9838
B( 17-C , 18-O ) :   1.1172 B( 17-C , 19-C ) :   1.3651 B( 18-O , 34-H ) :   0.9782
B( 19-C , 35-H ) :   0.9517

MP2 TOTAL ENERGY:    -1274.331955390 Eh
FINAL SINGLE POINT ENERGY     -1274.331955390160

DIPOLE MOMENT
-------------
                                X             Y             Z
Electronic contribution:      9.12522      10.20160       4.88514
Nuclear contribution   :    -10.25138     -11.79569      -3.93689
                        -----------------------------------------
Total Dipole Moment    :     -1.12617      -1.59409       0.94825
                        -----------------------------------------
Magnitude (a.u.)       :      2.16992
Magnitude (Debye)      :      5.51549

Rotational constants in cm-1:     0.011045     0.009440     0.006460
Rotational constants in MHz :   331.106865   283.003730   193.670486

                             ****ORCA TERMINATED NORMALLY****
TOTAL RUN TIME: 0 days 1 hours 47 minutes 45 seconds 325 msec
