                         Program Version 4.2.0 -  RELEASE  -
|  1> ! ri-mp2 cc-pvtz cc-pvtz/c TightSCF  NoKeepInts
|  2>
|  3> %scf
|  4>   MaxCore 4096
|  5> end
|  6> *xyz  0  1
|  7>     C       15.4711932   13.4513387   16.8313005
|  8>     C       15.6934508   14.9727367   16.8508235
|  9>     O       16.9481428   15.2362462   16.1975832
| 10>     C       17.3104556   16.5365450   16.0075932
| 11>     O       16.9766516   17.0902268   14.9765755
| 12>     C       17.6523944   17.2834348   17.2688445
| 13>     C       17.3889963   18.6064625   17.4211484
| 14>     C       16.5818307   19.4943660   16.4989257
| 15>     N       17.9358493   19.3063210   18.5012471
| 16>     C       18.9438238   18.8289839   19.2976820
| 17>     S       19.6998757   19.7794615   20.4200055
| 18>     N       19.3009567   17.5174542   19.1059008
| 19>     C       18.5242102   16.5516134   18.3062507
| 20>     C       17.7497898   15.6424155   19.2537743
| 21>     C       18.0210087   14.2617622   19.2912957
| 22>     C       17.3167438   13.4179479   20.1665791
| 23>     C       16.3360168   13.9586321   21.0152225
| 24>     C       16.0704614   15.3342930   20.9889787
| 25>     O       15.1236221   15.8598998   21.8058188
| 26>     C       16.7727923   16.1720138   20.1171155
| 27>     H       14.5175653   13.1959060   17.3087203
| 28>     H       16.2739432   12.9338241   17.3695860
| 29>     H       15.4508658   13.0783053   15.7996560
| 30>     H       14.8804578   15.4603447   16.2959041
| 31>     H       15.6680009   15.3465324   17.8776630
| 32>     H       15.6447445   19.0038968   16.2069906
| 33>     H       17.1423461   19.7004448   15.5777853
| 34>     H       16.3190817   20.4557984   16.9555199
| 35>     H       17.7001398   20.2767605   18.6362696
| 36>     H       20.0328863   17.1859657   19.7213282
| 37>     H       19.2410355   15.9303478   17.7506823
| 38>     H       18.7757197   13.8383403   18.6334079
| 39>     H       17.5320119   12.3507429   20.1853483
| 40>     H       15.7892654   13.3103360   21.6923383
| 41>     H       14.8035301   15.1473606   22.3796888
| 42>     H       16.5571403   17.2349390   20.1204464
| 43> *
| 44>
| 45>                          ****END OF INPUT****

CARTESIAN COORDINATES (ANGSTROEM)
---------------------------------
  C     15.471193   13.451339   16.831301
  C     15.693451   14.972737   16.850824
  O     16.948143   15.236246   16.197583
  C     17.310456   16.536545   16.007593
  O     16.976652   17.090227   14.976575
  C     17.652394   17.283435   17.268845
  C     17.388996   18.606462   17.421148
  C     16.581831   19.494366   16.498926
  N     17.935849   19.306321   18.501247
  C     18.943824   18.828984   19.297682
  S     19.699876   19.779462   20.420005
  N     19.300957   17.517454   19.105901
  C     18.524210   16.551613   18.306251
  C     17.749790   15.642415   19.253774
  C     18.021009   14.261762   19.291296
  C     17.316744   13.417948   20.166579
  C     16.336017   13.958632   21.015223
  C     16.070461   15.334293   20.988979
  O     15.123622   15.859900   21.805819
  C     16.772792   16.172014   20.117116
  H     14.517565   13.195906   17.308720
  H     16.273943   12.933824   17.369586
  H     15.450866   13.078305   15.799656
  H     14.880458   15.460345   16.295904
  H     15.668001   15.346532   17.877663
  H     15.644744   19.003897   16.206991
  H     17.142346   19.700445   15.577785
  H     16.319082   20.455798   16.955520
  H     17.700140   20.276761   18.636270
  H     20.032886   17.185966   19.721328
  H     19.241035   15.930348   17.750682
  H     18.775720   13.838340   18.633408
  H     17.532012   12.350743   20.185348
  H     15.789265   13.310336   21.692338
  H     14.803530   15.147361   22.379689
  H     16.557140   17.234939   20.120446

 Total Charge           Charge          ....    0
 Multiplicity           Mult            ....    1
 Number of Electrons    NEL             ....  154
 Basis Dimension        Dim             ....  828

ORBITAL ENERGIES
----------------

  NO   OCC          E(Eh)            E(eV)
   0   2.0000     -91.891943     -2500.5069
   1   2.0000     -20.602509      -560.6228
   2   2.0000     -20.581372      -560.0476
   3   2.0000     -20.552481      -559.2614
   4   2.0000     -15.631477      -425.3541
   5   2.0000     -15.611024      -424.7976
   6   2.0000     -11.392232      -309.9984
   7   2.0000     -11.386518      -309.8429
   8   2.0000     -11.336897      -308.4927
   9   2.0000     -11.320588      -308.0489
  10   2.0000     -11.315379      -307.9071
  11   2.0000     -11.294762      -307.3461
  12   2.0000     -11.265714      -306.5557
  13   2.0000     -11.261800      -306.4491
  14   2.0000     -11.260313      -306.4087
  15   2.0000     -11.254632      -306.2541
  16   2.0000     -11.249794      -306.1225
  17   2.0000     -11.244292      -305.9727
  18   2.0000     -11.244085      -305.9671
  19   2.0000     -11.225899      -305.4722
  20   2.0000      -8.896954      -242.0984
  21   2.0000      -6.578516      -179.0105
  22   2.0000      -6.576525      -178.9563
  23   2.0000      -6.575926      -178.9400
  24   2.0000      -1.448737       -39.4221
  25   2.0000      -1.422248       -38.7013
  26   2.0000      -1.353997       -36.8441
  27   2.0000      -1.343066       -36.5467
  28   2.0000      -1.241726       -33.7891
  29   2.0000      -1.163361       -31.6567
  30   2.0000      -1.122263       -30.5383
  31   2.0000      -1.047675       -28.5087
  32   2.0000      -1.033331       -28.1184
  33   2.0000      -1.022004       -27.8101
  34   2.0000      -1.000176       -27.2162
  35   2.0000      -0.987263       -26.8648
  36   2.0000      -0.927065       -25.2267
  37   2.0000      -0.876283       -23.8449
  38   2.0000      -0.850715       -23.1491
  39   2.0000      -0.844803       -22.9883
  40   2.0000      -0.840286       -22.8653
  41   2.0000      -0.833465       -22.6797
  42   2.0000      -0.760981       -20.7074
  43   2.0000      -0.736999       -20.0548
  44   2.0000      -0.725838       -19.7511
  45   2.0000      -0.701982       -19.1019
  46   2.0000      -0.692557       -18.8454
  47   2.0000      -0.681448       -18.5431
  48   2.0000      -0.673890       -18.3375
  49   2.0000      -0.658176       -17.9099
  50   2.0000      -0.649956       -17.6862
  51   2.0000      -0.644185       -17.5292
  52   2.0000      -0.636025       -17.3071
  53   2.0000      -0.620016       -16.8715
  54   2.0000      -0.612176       -16.6581
  55   2.0000      -0.604603       -16.4521
  56   2.0000      -0.601805       -16.3759
  57   2.0000      -0.582748       -15.8574
  58   2.0000      -0.574244       -15.6260
  59   2.0000      -0.565533       -15.3889
  60   2.0000      -0.553486       -15.0611
  61   2.0000      -0.543574       -14.7914
  62   2.0000      -0.534424       -14.5424
  63   2.0000      -0.531080       -14.4514
  64   2.0000      -0.519725       -14.1424
  65   2.0000      -0.518413       -14.1067
  66   2.0000      -0.507468       -13.8089
  67   2.0000      -0.501018       -13.6334
  68   2.0000      -0.481785       -13.1100
  69   2.0000      -0.467864       -12.7312
  70   2.0000      -0.458366       -12.4728
  71   2.0000      -0.445810       -12.1311
  72   2.0000      -0.359589        -9.7849
  73   2.0000      -0.353896        -9.6300
  74   2.0000      -0.331630        -9.0241
  75   2.0000      -0.328176        -8.9301
  76   2.0000      -0.319108        -8.6834
  77   0.0000       0.068907         1.8751
  78   0.0000       0.100589         2.7372
  79   0.0000       0.119801         3.2599
  80   0.0000       0.125842         3.4243
  81   0.0000       0.130212         3.5433

MULLIKEN ATOMIC CHARGES
-----------------------
   0 C :   -0.268775
   1 C :    0.021380
   2 O :   -0.362127
   3 C :    0.461224
   4 O :   -0.379228
   5 C :   -0.265462
   6 C :    0.153420
   7 C :   -0.271845
   8 N :   -0.126770
   9 C :    0.201562
  10 S :   -0.432416
  11 N :   -0.189076
  12 C :    0.035769
  13 C :    0.034632
  14 C :   -0.172187
  15 C :   -0.143159
  16 C :   -0.265283
  17 C :    0.301638
  18 O :   -0.355655
  19 C :   -0.253703
  20 H :    0.089123
  21 H :    0.093296
  22 H :    0.109153
  23 H :    0.107679
  24 H :    0.111805
  25 H :    0.124673
  26 H :    0.139520
  27 H :    0.093999
  28 H :    0.198593
  29 H :    0.190656
  30 H :    0.147878
  31 H :    0.154691
  32 H :    0.167977
  33 H :    0.134573
  34 H :    0.241645
  35 H :    0.170800
Sum of atomic charges:   -0.0000000

LOEWDIN ATOMIC CHARGES
----------------------
   0 C :    0.111527
   1 C :   -0.018789
   2 O :    0.286860
   3 C :   -0.423810
   4 O :    0.132962
   5 C :   -0.098880
   6 C :   -0.063871
   7 C :    0.129872
   8 N :    0.406199
   9 C :   -0.458014
  10 S :   -0.030492
  11 N :    0.396358
  12 C :   -0.052799
  13 C :   -0.041201
  14 C :    0.016239
  15 C :    0.045116
  16 C :    0.000069
  17 C :   -0.191494
  18 O :    0.396935
  19 C :    0.030894
  20 H :   -0.025391
  21 H :   -0.030991
  22 H :   -0.024958
  23 H :   -0.031968
  24 H :   -0.039637
  25 H :   -0.006879
  26 H :   -0.002963
  27 H :   -0.022725
  28 H :   -0.057435
  29 H :   -0.065117
  30 H :   -0.006190
  31 H :   -0.029042
  32 H :   -0.019689
  33 H :   -0.033995
  34 H :   -0.152518
  35 H :   -0.024181

  Mayer bond orders larger than 0.100000
B(  0-C ,  1-C ) :   0.9827 B(  0-C , 20-H ) :   0.9757 B(  0-C , 21-H ) :   0.9758
B(  0-C , 22-H ) :   0.9788 B(  1-C ,  2-O ) :   0.8797 B(  1-C , 23-H ) :   0.9798
B(  1-C , 24-H ) :   0.9585 B(  2-O ,  3-C ) :   1.1327 B(  3-C ,  4-O ) :   2.0740
B(  3-C ,  5-C ) :   1.0033 B(  5-C ,  6-C ) :   1.6754 B(  5-C , 12-C ) :   0.9675
B(  6-C ,  7-C ) :   0.9677 B(  6-C ,  8-N ) :   1.1415 B(  7-C , 25-H ) :   0.9683
B(  7-C , 26-H ) :   0.9557 B(  7-C , 27-H ) :   0.9865 B(  8-N ,  9-C ) :   1.1791
B(  8-N , 28-H ) :   0.9491 B(  9-C , 10-S ) :   1.6212 B(  9-C , 11-N ) :   1.2948
B( 11-N , 12-C ) :   0.9871 B( 11-N , 29-H ) :   0.9543 B( 12-C , 13-C ) :   0.9480
B( 12-C , 30-H ) :   1.0063 B( 13-C , 14-C ) :   1.3598 B( 13-C , 19-C ) :   1.3620
B( 14-C , 15-C ) :   1.3788 B( 14-C , 31-H ) :   0.9708 B( 15-C , 16-C ) :   1.3705
B( 15-C , 32-H ) :   0.9684 B( 16-C , 17-C ) :   1.3244 B( 16-C , 33-H ) :   0.9829
B( 17-C , 18-O ) :   1.1154 B( 17-C , 19-C ) :   1.3831 B( 18-O , 34-H ) :   0.9789
B( 19-C , 35-H ) :   0.9566

MP2 TOTAL ENERGY:    -1274.325055936 Eh
FINAL SINGLE POINT ENERGY     -1274.325055935817

DIPOLE MOMENT
-------------
                                X             Y             Z
Electronic contribution:     10.17495      10.16625       5.26298
Nuclear contribution   :    -11.42644     -11.63175      -4.90633
                        -----------------------------------------
Total Dipole Moment    :     -1.25149      -1.46550       0.35665
                        -----------------------------------------
Magnitude (a.u.)       :      1.95988
Magnitude (Debye)      :      4.98162

Rotational constants in cm-1:     0.012098     0.009381     0.006382
Rotational constants in MHz :   362.675053   281.247457   191.313191

                             ****ORCA TERMINATED NORMALLY****
TOTAL RUN TIME: 0 days 1 hours 56 minutes 45 seconds 519 msec
