                         Program Version 4.2.0 -  RELEASE  -
|  1> ! ri-mp2 cc-pvtz cc-pvtz/c TightSCF  NoKeepInts
|  2>
|  3> %scf
|  4>   MaxCore 4096
|  5> end
|  6> *xyz  0  1
|  7>     C       15.0010691   13.8081681   16.8139647
|  8>     C       15.6448577   15.1896878   17.0119185
|  9>     O       16.9229719   15.1630805   16.3498984
| 10>     C       17.5773776   16.3357434   16.1078654
| 11>     O       17.6064322   16.7716027   14.9720834
| 12>     C       17.7741646   17.2107617   17.3109127
| 13>     C       17.4259846   18.5200019   17.3025023
| 14>     C       16.6528685   19.2437037   16.2220216
| 15>     N       17.8155967   19.3538277   18.3537536
| 16>     C       18.7219931   19.0072027   19.3210363
| 17>     S       19.2564762   20.0924807   20.4482161
| 18>     N       19.1675012   17.7084404   19.3065533
| 19>     C       18.6072750   16.6304933   18.4675874
| 20>     C       17.8656117   15.6259667   19.3430669
| 21>     C       18.1145999   14.2473303   19.2044261
| 22>     C       17.4304666   13.3127684   19.9994453
| 23>     C       16.4925317   13.7588195   20.9457537
| 24>     C       16.2463489   15.1304138   21.0928338
| 25>     O       15.3367808   15.5640073   22.0008481
| 26>     C       16.9268058   16.0590136   20.2987797
| 27>     H       14.0015882   13.7803444   17.2643822
| 28>     H       15.6124153   13.0287782   17.2856201
| 29>     H       14.9053615   13.5752636   15.7459404
| 30>     H       15.0019620   15.9490786   16.5467656
| 31>     H       15.7230772   15.4166543   18.0772386
| 32>     H       15.8296953   18.6241533   15.8451877
| 33>     H       17.3075551   19.4663179   15.3692111
| 34>     H       16.2192421   20.1877702   16.5723496
| 35>     H       17.5174470   20.3164535   18.3636321
| 36>     H       19.8203828   17.4787757   20.0453637
| 37>     H       19.4587860   16.1034915   18.0139102
| 38>     H       18.8320395   13.8963035   18.4668022
| 39>     H       17.6273208   12.2485663   19.8794678
| 40>     H       15.9613945   13.0399668   21.5612715
| 41>     H       15.0220806   14.7905836   22.4930462
| 42>     H       16.7189383   17.1159844   20.4303437
| 43> *
| 44>
| 45>                          ****END OF INPUT****

CARTESIAN COORDINATES (ANGSTROEM)
---------------------------------
  C     15.001069   13.808168   16.813965
  C     15.644858   15.189688   17.011919
  O     16.922972   15.163080   16.349898
  C     17.577378   16.335743   16.107865
  O     17.606432   16.771603   14.972083
  C     17.774165   17.210762   17.310913
  C     17.425985   18.520002   17.302502
  C     16.652869   19.243704   16.222022
  N     17.815597   19.353828   18.353754
  C     18.721993   19.007203   19.321036
  S     19.256476   20.092481   20.448216
  N     19.167501   17.708440   19.306553
  C     18.607275   16.630493   18.467587
  C     17.865612   15.625967   19.343067
  C     18.114600   14.247330   19.204426
  C     17.430467   13.312768   19.999445
  C     16.492532   13.758819   20.945754
  C     16.246349   15.130414   21.092834
  O     15.336781   15.564007   22.000848
  C     16.926806   16.059014   20.298780
  H     14.001588   13.780344   17.264382
  H     15.612415   13.028778   17.285620
  H     14.905361   13.575264   15.745940
  H     15.001962   15.949079   16.546766
  H     15.723077   15.416654   18.077239
  H     15.829695   18.624153   15.845188
  H     17.307555   19.466318   15.369211
  H     16.219242   20.187770   16.572350
  H     17.517447   20.316453   18.363632
  H     19.820383   17.478776   20.045364
  H     19.458786   16.103492   18.013910
  H     18.832040   13.896304   18.466802
  H     17.627321   12.248566   19.879468
  H     15.961395   13.039967   21.561271
  H     15.022081   14.790584   22.493046
  H     16.718938   17.115984   20.430344

 Total Charge           Charge          ....    0
 Multiplicity           Mult            ....    1
 Number of Electrons    NEL             ....  154
 Basis Dimension        Dim             ....  828

ORBITAL ENERGIES
----------------

  NO   OCC          E(Eh)            E(eV)
   0   2.0000     -91.891372     -2500.4914
   1   2.0000     -20.602420      -560.6203
   2   2.0000     -20.584545      -560.1339
   3   2.0000     -20.556142      -559.3611
   4   2.0000     -15.629173      -425.2914
   5   2.0000     -15.611734      -424.8169
   6   2.0000     -11.393593      -310.0354
   7   2.0000     -11.386595      -309.8450
   8   2.0000     -11.333056      -308.3881
   9   2.0000     -11.320579      -308.0486
  10   2.0000     -11.317567      -307.9667
  11   2.0000     -11.296810      -307.4018
  12   2.0000     -11.266584      -306.5793
  13   2.0000     -11.261758      -306.4480
  14   2.0000     -11.260052      -306.4016
  15   2.0000     -11.256015      -306.2917
  16   2.0000     -11.250128      -306.1315
  17   2.0000     -11.244970      -305.9912
  18   2.0000     -11.244664      -305.9829
  19   2.0000     -11.227663      -305.5202
  20   2.0000      -8.896425      -242.0840
  21   2.0000      -6.577998      -178.9964
  22   2.0000      -6.575992      -178.9419
  23   2.0000      -6.575403      -178.9258
  24   2.0000      -1.449216       -39.4352
  25   2.0000      -1.422240       -38.7011
  26   2.0000      -1.356906       -36.9233
  27   2.0000      -1.341514       -36.5044
  28   2.0000      -1.241184       -33.7743
  29   2.0000      -1.163715       -31.6663
  30   2.0000      -1.123055       -30.5599
  31   2.0000      -1.048521       -28.5317
  32   2.0000      -1.034898       -28.1610
  33   2.0000      -1.022252       -27.8169
  34   2.0000      -1.001266       -27.2458
  35   2.0000      -0.988022       -26.8854
  36   2.0000      -0.927650       -25.2426
  37   2.0000      -0.875968       -23.8363
  38   2.0000      -0.851900       -23.1814
  39   2.0000      -0.844034       -22.9673
  40   2.0000      -0.840890       -22.8818
  41   2.0000      -0.836046       -22.7500
  42   2.0000      -0.759899       -20.6779
  43   2.0000      -0.737022       -20.0554
  44   2.0000      -0.728940       -19.8355
  45   2.0000      -0.701481       -19.0883
  46   2.0000      -0.691803       -18.8249
  47   2.0000      -0.682960       -18.5843
  48   2.0000      -0.675578       -18.3834
  49   2.0000      -0.660345       -17.9689
  50   2.0000      -0.650079       -17.6895
  51   2.0000      -0.647878       -17.6297
  52   2.0000      -0.639788       -17.4095
  53   2.0000      -0.614564       -16.7231
  54   2.0000      -0.608979       -16.5712
  55   2.0000      -0.604254       -16.4426
  56   2.0000      -0.601233       -16.3604
  57   2.0000      -0.582075       -15.8391
  58   2.0000      -0.575862       -15.6700
  59   2.0000      -0.566282       -15.4093
  60   2.0000      -0.556643       -15.1470
  61   2.0000      -0.549298       -14.9472
  62   2.0000      -0.541638       -14.7387
  63   2.0000      -0.529837       -14.4176
  64   2.0000      -0.518581       -14.1113
  65   2.0000      -0.517264       -14.0755
  66   2.0000      -0.506602       -13.7853
  67   2.0000      -0.501925       -13.6581
  68   2.0000      -0.481979       -13.1153
  69   2.0000      -0.469691       -12.7809
  70   2.0000      -0.456660       -12.4263
  71   2.0000      -0.450242       -12.2517
  72   2.0000      -0.358008        -9.7419
  73   2.0000      -0.353720        -9.6252
  74   2.0000      -0.330978        -9.0064
  75   2.0000      -0.328312        -8.9338
  76   2.0000      -0.319336        -8.6896
  77   0.0000       0.075645         2.0584
  78   0.0000       0.099994         2.7210
  79   0.0000       0.117561         3.1990
  80   0.0000       0.126008         3.4288
  81   0.0000       0.128571         3.4986

MULLIKEN ATOMIC CHARGES
-----------------------
   0 C :   -0.262438
   1 C :    0.017289
   2 O :   -0.341617
   3 C :    0.404574
   4 O :   -0.363737
   5 C :   -0.219714
   6 C :    0.149960
   7 C :   -0.279792
   8 N :   -0.124828
   9 C :    0.197255
  10 S :   -0.434280
  11 N :   -0.201266
  12 C :    0.036716
  13 C :    0.022436
  14 C :   -0.155095
  15 C :   -0.156031
  16 C :   -0.266497
  17 C :    0.300751
  18 O :   -0.354956
  19 C :   -0.247138
  20 H :    0.088231
  21 H :    0.096536
  22 H :    0.107606
  23 H :    0.098192
  24 H :    0.116402
  25 H :    0.120581
  26 H :    0.142402
  27 H :    0.095912
  28 H :    0.197973
  29 H :    0.193762
  30 H :    0.154277
  31 H :    0.147845
  32 H :    0.167495
  33 H :    0.134827
  34 H :    0.241323
  35 H :    0.175042
Sum of atomic charges:   -0.0000000

LOEWDIN ATOMIC CHARGES
----------------------
   0 C :    0.112066
   1 C :   -0.021176
   2 O :    0.293394
   3 C :   -0.423266
   4 O :    0.139005
   5 C :   -0.093388
   6 C :   -0.074641
   7 C :    0.129494
   8 N :    0.405184
   9 C :   -0.458017
  10 S :   -0.032964
  11 N :    0.396406
  12 C :   -0.052535
  13 C :   -0.043695
  14 C :    0.018007
  15 C :    0.044159
  16 C :    0.000129
  17 C :   -0.192847
  18 O :    0.397136
  19 C :    0.030053
  20 H :   -0.025678
  21 H :   -0.028358
  22 H :   -0.024112
  23 H :   -0.034240
  24 H :   -0.038513
  25 H :   -0.009869
  26 H :   -0.003287
  27 H :   -0.021692
  28 H :   -0.057676
  29 H :   -0.064574
  30 H :   -0.008048
  31 H :   -0.028281
  32 H :   -0.019286
  33 H :   -0.033949
  34 H :   -0.152582
  35 H :   -0.022360

  Mayer bond orders larger than 0.100000
B(  0-C ,  1-C ) :   0.9834 B(  0-C , 20-H ) :   0.9765 B(  0-C , 21-H ) :   0.9775
B(  0-C , 22-H ) :   0.9783 B(  1-C ,  2-O ) :   0.8825 B(  1-C , 23-H ) :   0.9805
B(  1-C , 24-H ) :   0.9580 B(  2-O ,  3-C ) :   1.1555 B(  3-C ,  4-O ) :   2.1081
B(  3-C ,  5-C ) :   0.9514 B(  5-C ,  6-C ) :   1.6993 B(  5-C , 12-C ) :   0.9601
B(  6-C ,  7-C ) :   0.9548 B(  6-C ,  8-N ) :   1.1319 B(  7-C , 25-H ) :   0.9722
B(  7-C , 26-H ) :   0.9577 B(  7-C , 27-H ) :   0.9854 B(  8-N ,  9-C ) :   1.1878
B(  8-N , 28-H ) :   0.9497 B(  9-C , 10-S ) :   1.6186 B(  9-C , 11-N ) :   1.2872
B( 11-N , 12-C ) :   0.9954 B( 11-N , 29-H ) :   0.9511 B( 12-C , 13-C ) :   0.9378
B( 12-C , 30-H ) :   1.0115 B( 13-C , 14-C ) :   1.3760 B( 13-C , 19-C ) :   1.3583
B( 14-C , 15-C ) :   1.3892 B( 14-C , 31-H ) :   0.9707 B( 15-C , 16-C ) :   1.3618
B( 15-C , 32-H ) :   0.9691 B( 16-C , 17-C ) :   1.3295 B( 16-C , 33-H ) :   0.9830
B( 17-C , 18-O ) :   1.1144 B( 17-C , 19-C ) :   1.3726 B( 18-O , 34-H ) :   0.9790
B( 19-C , 35-H ) :   0.9573

MP2 TOTAL ENERGY:    -1274.322541585 Eh
FINAL SINGLE POINT ENERGY     -1274.322541584933

DIPOLE MOMENT
-------------
                                X             Y             Z
Electronic contribution:     10.92576       9.49026       6.05727
Nuclear contribution   :    -12.24470     -11.00058      -5.83513
                        -----------------------------------------
Total Dipole Moment    :     -1.31894      -1.51032       0.22214
                        -----------------------------------------
Magnitude (a.u.)       :      2.01743
Magnitude (Debye)      :      5.12789

Rotational constants in cm-1:     0.012105     0.009371     0.006273
Rotational constants in MHz :   362.901637   280.945423   188.052609

                             ****ORCA TERMINATED NORMALLY****
TOTAL RUN TIME: 0 days 1 hours 46 minutes 36 seconds 731 msec
