                         Program Version 4.2.0 -  RELEASE  -
|  1> ! ri-mp2 cc-pvtz cc-pvtz/c TightSCF  NoKeepInts
|  2>
|  3> %scf
|  4>   MaxCore 4096
|  5> end
|  6> *xyz  0  1
|  7>     C       15.0534213   13.9307616   16.4486013
|  8>     C       15.4210409   15.4027233   16.7009201
|  9>     O       16.5631444   15.7172571   15.8838927
| 10>     C       17.7823312   15.7428131   16.4926454
| 11>     O       18.4126425   14.7119084   16.6465086
| 12>     C       17.9768272   16.9303781   17.3869084
| 13>     C       17.5157484   18.1725856   17.0981475
| 14>     C       16.7783959   18.6106505   15.8500810
| 15>     N       17.7833583   19.2325205   17.9695355
| 16>     C       18.6157451   19.1588019   19.0559113
| 17>     S       18.9710768   20.4891890   19.9714533
| 18>     N       19.1365371   17.9224328   19.3471978
| 19>     C       18.7508241   16.6637117   18.6803103
| 20>     C       17.9311450   15.7816563   19.6188881
| 21>     C       18.2699294   14.4282528   19.8003745
| 22>     C       17.5049969   13.6042544   20.6426217
| 23>     C       16.3890830   14.1366999   21.3100972
| 24>     C       16.0452957   15.4829770   21.1294597
| 25>     O       14.9610173   15.9977358   21.7618524
| 26>     C       16.8079667   16.3005768   20.2896082
| 27>     H       15.8767630   13.2714518   16.7527763
| 28>     H       14.8486507   13.7584352   15.3846833
| 29>     H       14.1616866   13.6514042   17.0224348
| 30>     H       14.5742630   16.0363824   16.4080617
| 31>     H       15.6229124   15.5674419   17.7680794
| 32>     H       17.1771482   18.1090566   14.9591132
| 33>     H       16.8677348   19.6893584   15.6715675
| 34>     H       15.7110241   18.3698557   15.9215141
| 35>     H       17.4144857   20.1489946   17.7704210
| 36>     H       19.7267661   17.8912479   20.1688182
| 37>     H       19.6738801   16.1264590   18.4174333
| 38>     H       19.1203919   14.0079785   19.2682091
| 39>     H       17.7751922   12.5571786   20.7684869
| 40>     H       15.7940422   13.5026014   21.9589998
| 41>     H       14.6082009   15.3063567   22.3423629
| 42>     H       16.5233306   17.3399107   20.1660233
| 43> *
| 44>
| 45>                          ****END OF INPUT****

CARTESIAN COORDINATES (ANGSTROEM)
---------------------------------
  C     15.053421   13.930762   16.448601
  C     15.421041   15.402723   16.700920
  O     16.563144   15.717257   15.883893
  C     17.782331   15.742813   16.492645
  O     18.412643   14.711908   16.646509
  C     17.976827   16.930378   17.386908
  C     17.515748   18.172586   17.098147
  C     16.778396   18.610650   15.850081
  N     17.783358   19.232520   17.969535
  C     18.615745   19.158802   19.055911
  S     18.971077   20.489189   19.971453
  N     19.136537   17.922433   19.347198
  C     18.750824   16.663712   18.680310
  C     17.931145   15.781656   19.618888
  C     18.269929   14.428253   19.800375
  C     17.504997   13.604254   20.642622
  C     16.389083   14.136700   21.310097
  C     16.045296   15.482977   21.129460
  O     14.961017   15.997736   21.761852
  C     16.807967   16.300577   20.289608
  H     15.876763   13.271452   16.752776
  H     14.848651   13.758435   15.384683
  H     14.161687   13.651404   17.022435
  H     14.574263   16.036382   16.408062
  H     15.622912   15.567442   17.768079
  H     17.177148   18.109057   14.959113
  H     16.867735   19.689358   15.671567
  H     15.711024   18.369856   15.921514
  H     17.414486   20.148995   17.770421
  H     19.726766   17.891248   20.168818
  H     19.673880   16.126459   18.417433
  H     19.120392   14.007978   19.268209
  H     17.775192   12.557179   20.768487
  H     15.794042   13.502601   21.959000
  H     14.608201   15.306357   22.342363
  H     16.523331   17.339911   20.166023

 Total Charge           Charge          ....    0
 Multiplicity           Mult            ....    1
 Number of Electrons    NEL             ....  154
 Basis Dimension        Dim             ....  828

ORBITAL ENERGIES
----------------

  NO   OCC          E(Eh)            E(eV)
   0   2.0000     -91.890866     -2500.4776
   1   2.0000     -20.597778      -560.4940
   2   2.0000     -20.582274      -560.0722
   3   2.0000     -20.556841      -559.3801
   4   2.0000     -15.630764      -425.3347
   5   2.0000     -15.610152      -424.7738
   6   2.0000     -11.394923      -310.0716
   7   2.0000     -11.386383      -309.8392
   8   2.0000     -11.336427      -308.4799
   9   2.0000     -11.314300      -307.8778
  10   2.0000     -11.310212      -307.7665
  11   2.0000     -11.301454      -307.5282
  12   2.0000     -11.263202      -306.4873
  13   2.0000     -11.261059      -306.4290
  14   2.0000     -11.259964      -306.3992
  15   2.0000     -11.254179      -306.2418
  16   2.0000     -11.243783      -305.9589
  17   2.0000     -11.239899      -305.8532
  18   2.0000     -11.236608      -305.7636
  19   2.0000     -11.222401      -305.3771
  20   2.0000      -8.895931      -242.0706
  21   2.0000      -6.577505      -178.9830
  22   2.0000      -6.575498      -178.9284
  23   2.0000      -6.574909      -178.9124
  24   2.0000      -1.451541       -39.4984
  25   2.0000      -1.417611       -38.5752
  26   2.0000      -1.358403       -36.9640
  27   2.0000      -1.341807       -36.5124
  28   2.0000      -1.239869       -33.7385
  29   2.0000      -1.158460       -31.5233
  30   2.0000      -1.123168       -30.5630
  31   2.0000      -1.046156       -28.4673
  32   2.0000      -1.031574       -28.0706
  33   2.0000      -1.016016       -27.6472
  34   2.0000      -1.001766       -27.2594
  35   2.0000      -0.987176       -26.8624
  36   2.0000      -0.925547       -25.1854
  37   2.0000      -0.880226       -23.9522
  38   2.0000      -0.852740       -23.2042
  39   2.0000      -0.841890       -22.9090
  40   2.0000      -0.834416       -22.7056
  41   2.0000      -0.831845       -22.6357
  42   2.0000      -0.752072       -20.4649
  43   2.0000      -0.734397       -19.9840
  44   2.0000      -0.730209       -19.8700
  45   2.0000      -0.696134       -18.9428
  46   2.0000      -0.687820       -18.7165
  47   2.0000      -0.679739       -18.4966
  48   2.0000      -0.675246       -18.3744
  49   2.0000      -0.665083       -18.0978
  50   2.0000      -0.649899       -17.6846
  51   2.0000      -0.648395       -17.6437
  52   2.0000      -0.639454       -17.4004
  53   2.0000      -0.607493       -16.5307
  54   2.0000      -0.605923       -16.4880
  55   2.0000      -0.601732       -16.3740
  56   2.0000      -0.589897       -16.0519
  57   2.0000      -0.583371       -15.8743
  58   2.0000      -0.578541       -15.7429
  59   2.0000      -0.572322       -15.5737
  60   2.0000      -0.563260       -15.3271
  61   2.0000      -0.554044       -15.0763
  62   2.0000      -0.538335       -14.6489
  63   2.0000      -0.523747       -14.2519
  64   2.0000      -0.515320       -14.0226
  65   2.0000      -0.512860       -13.9556
  66   2.0000      -0.502261       -13.6672
  67   2.0000      -0.498008       -13.5515
  68   2.0000      -0.482800       -13.1377
  69   2.0000      -0.468314       -12.7435
  70   2.0000      -0.456302       -12.4166
  71   2.0000      -0.450366       -12.2551
  72   2.0000      -0.357169        -9.7191
  73   2.0000      -0.349831        -9.5194
  74   2.0000      -0.330097        -8.9824
  75   2.0000      -0.321603        -8.7513
  76   2.0000      -0.318305        -8.6615
  77   0.0000       0.069767         1.8985
  78   0.0000       0.104056         2.8315
  79   0.0000       0.118922         3.2360
  80   0.0000       0.130655         3.5553
  81   0.0000       0.134774         3.6674

MULLIKEN ATOMIC CHARGES
-----------------------
   0 C :   -0.256845
   1 C :    0.023175
   2 O :   -0.373176
   3 C :    0.470535
   4 O :   -0.389942
   5 C :   -0.229442
   6 C :    0.146648
   7 C :   -0.287553
   8 N :   -0.124132
   9 C :    0.197600
  10 S :   -0.436205
  11 N :   -0.202321
  12 C :    0.059838
  13 C :    0.035023
  14 C :   -0.168774
  15 C :   -0.134391
  16 C :   -0.277085
  17 C :    0.320552
  18 O :   -0.359522
  19 C :   -0.292458
  20 H :    0.110657
  21 H :    0.096328
  22 H :    0.086154
  23 H :    0.098960
  24 H :    0.103994
  25 H :    0.130889
  26 H :    0.109902
  27 H :    0.121521
  28 H :    0.197450
  29 H :    0.194709
  30 H :    0.157681
  31 H :    0.162500
  32 H :    0.162458
  33 H :    0.131882
  34 H :    0.241222
  35 H :    0.172170
Sum of atomic charges:   -0.0000000

LOEWDIN ATOMIC CHARGES
----------------------
   0 C :    0.108288
   1 C :   -0.018487
   2 O :    0.288414
   3 C :   -0.421187
   4 O :    0.133884
   5 C :   -0.095884
   6 C :   -0.074517
   7 C :    0.127615
   8 N :    0.404558
   9 C :   -0.458272
  10 S :   -0.033894
  11 N :    0.397066
  12 C :   -0.045805
  13 C :   -0.042729
  14 C :    0.021675
  15 C :    0.043297
  16 C :   -0.001324
  17 C :   -0.195177
  18 O :    0.393934
  19 C :    0.026463
  20 H :   -0.022621
  21 H :   -0.026491
  22 H :   -0.029127
  23 H :   -0.030801
  24 H :   -0.030687
  25 H :   -0.006185
  26 H :   -0.018026
  27 H :   -0.011810
  28 H :   -0.058242
  29 H :   -0.063840
  30 H :   -0.003726
  31 H :   -0.023461
  32 H :   -0.019545
  33 H :   -0.035119
  34 H :   -0.153441
  35 H :   -0.024798

  Mayer bond orders larger than 0.100000
B(  0-C ,  1-C ) :   0.9891 B(  0-C , 20-H ) :   0.9740 B(  0-C , 21-H ) :   0.9782
B(  0-C , 22-H ) :   0.9758 B(  1-C ,  2-O ) :   0.8841 B(  1-C , 23-H ) :   0.9802
B(  1-C , 24-H ) :   0.9622 B(  2-O ,  3-C ) :   1.1025 B(  3-C ,  4-O ) :   2.0468
B(  3-C ,  5-C ) :   0.9992 B(  5-C ,  6-C ) :   1.6649 B(  5-C , 12-C ) :   0.9587
B(  6-C ,  7-C ) :   0.9522 B(  6-C ,  8-N ) :   1.1393 B(  7-C , 25-H ) :   0.9687
B(  7-C , 26-H ) :   0.9867 B(  7-C , 27-H ) :   0.9651 B(  8-N ,  9-C ) :   1.1819
B(  8-N , 28-H ) :   0.9495 B(  9-C , 10-S ) :   1.6154 B(  9-C , 11-N ) :   1.2981
B( 11-N , 12-C ) :   0.9935 B( 11-N , 29-H ) :   0.9517 B( 12-C , 13-C ) :   0.9437
B( 12-C , 30-H ) :   0.9988 B( 13-C , 14-C ) :   1.3833 B( 13-C , 19-C ) :   1.3526
B( 14-C , 15-C ) :   1.3958 B( 14-C , 31-H ) :   0.9608 B( 15-C , 16-C ) :   1.3640
B( 15-C , 32-H ) :   0.9704 B( 16-C , 17-C ) :   1.3308 B( 16-C , 33-H ) :   0.9843
B( 17-C , 18-O ) :   1.1105 B( 17-C , 19-C ) :   1.3689 B( 18-O , 34-H ) :   0.9796
B( 19-C , 35-H ) :   0.9596

MP2 TOTAL ENERGY:    -1274.326152835 Eh
FINAL SINGLE POINT ENERGY     -1274.326152834514

DIPOLE MOMENT
-------------
                                X             Y             Z
Electronic contribution:     10.65883       9.76860       6.90389
Nuclear contribution   :    -12.07399     -10.75143      -7.30313
                        -----------------------------------------
Total Dipole Moment    :     -1.41516      -0.98283      -0.39924
                        -----------------------------------------
Magnitude (a.u.)       :      1.76862
Magnitude (Debye)      :      4.49547

Rotational constants in cm-1:     0.011975     0.009236     0.006593
Rotational constants in MHz :   359.004620   276.896103   197.655220

                             ****ORCA TERMINATED NORMALLY****
TOTAL RUN TIME: 0 days 1 hours 39 minutes 21 seconds 985 msec
