                         Program Version 4.2.0 -  RELEASE  -
|  1> ! ri-mp2 cc-pvtz cc-pvtz/c TightSCF  NoKeepInts
|  2>
|  3> %scf
|  4>   MaxCore 4096
|  5> end
|  6> *xyz  0  1
|  7>     C       15.1527007   13.8245878   16.0178857
|  8>     C       16.1775268   14.5497237   16.9052644
|  9>     O       17.0489272   15.2845988   16.0303842
| 10>     C       17.0577322   16.6498516   16.0639125
| 11>     O       16.6069020   17.2686357   15.1183854
| 12>     C       17.5392402   17.2955872   17.3398868
| 13>     C       17.3121000   18.6098437   17.6012456
| 14>     C       16.4473813   19.5706062   16.8136651
| 15>     N       17.9653000   19.2316635   18.6707898
| 16>     C       19.0480272   18.7001447   19.3215650
| 17>     S       19.9424819   19.5756823   20.4026520
| 18>     N       19.3658055   17.4030403   19.0054296
| 19>     C       18.4674473   16.4932773   18.2725103
| 20>     C       17.7415776   15.6284731   19.2993283
| 21>     C       18.2279714   14.3414551   19.5986090
| 22>     C       17.5782411   13.5324763   20.5457638
| 23>     C       16.4390728   14.0177294   21.2097450
| 24>     C       15.9633935   15.3057919   20.9306941
| 25>     O       14.8673531   15.7807409   21.5733743
| 26>     C       16.6097449   16.1076462   19.9849909
| 27>     H       14.5660505   14.5473804   15.4365003
| 28>     H       14.4613847   13.2332332   16.6303630
| 29>     H       15.6577495   13.1480892   15.3170848
| 30>     H       15.6501031   15.2112554   17.6046539
| 31>     H       16.7476208   13.8033122   17.4709129
| 32>     H       15.4706608   19.1229957   16.5903478
| 33>     H       16.9211549   19.8146785   15.8538846
| 34>     H       16.2614662   20.5113226   17.3450232
| 35>     H       17.7577624   20.1931167   18.8898951
| 36>     H       20.1611168   17.0307542   19.5081082
| 37>     H       19.0881604   15.8385262   17.6440191
| 38>     H       19.1126682   13.9642856   19.0917755
| 39>     H       17.9607526   12.5372098   20.7673132
| 40>     H       15.9354391   13.3974801   21.9443090
| 41>     H       14.6066311   15.1211956   22.2343290
| 42>     H       16.2293523   17.1056090   19.7993982
| 43> *
| 44>
| 45>                          ****END OF INPUT****

CARTESIAN COORDINATES (ANGSTROEM)
---------------------------------
  C     15.152701   13.824588   16.017886
  C     16.177527   14.549724   16.905264
  O     17.048927   15.284599   16.030384
  C     17.057732   16.649852   16.063913
  O     16.606902   17.268636   15.118385
  C     17.539240   17.295587   17.339887
  C     17.312100   18.609844   17.601246
  C     16.447381   19.570606   16.813665
  N     17.965300   19.231663   18.670790
  C     19.048027   18.700145   19.321565
  S     19.942482   19.575682   20.402652
  N     19.365806   17.403040   19.005430
  C     18.467447   16.493277   18.272510
  C     17.741578   15.628473   19.299328
  C     18.227971   14.341455   19.598609
  C     17.578241   13.532476   20.545764
  C     16.439073   14.017729   21.209745
  C     15.963393   15.305792   20.930694
  O     14.867353   15.780741   21.573374
  C     16.609745   16.107646   19.984991
  H     14.566050   14.547380   15.436500
  H     14.461385   13.233233   16.630363
  H     15.657749   13.148089   15.317085
  H     15.650103   15.211255   17.604654
  H     16.747621   13.803312   17.470913
  H     15.470661   19.122996   16.590348
  H     16.921155   19.814678   15.853885
  H     16.261466   20.511323   17.345023
  H     17.757762   20.193117   18.889895
  H     20.161117   17.030754   19.508108
  H     19.088160   15.838526   17.644019
  H     19.112668   13.964286   19.091775
  H     17.960753   12.537210   20.767313
  H     15.935439   13.397480   21.944309
  H     14.606631   15.121196   22.234329
  H     16.229352   17.105609   19.799398

 Total Charge           Charge          ....    0
 Multiplicity           Mult            ....    1
 Number of Electrons    NEL             ....  154
 Basis Dimension        Dim             ....  828

ORBITAL ENERGIES
----------------

  NO   OCC          E(Eh)            E(eV)
   0   2.0000     -91.892333     -2500.5175
   1   2.0000     -20.604541      -560.6781
   2   2.0000     -20.585332      -560.1554
   3   2.0000     -20.545146      -559.0618
   4   2.0000     -15.632810      -425.3904
   5   2.0000     -15.611358      -424.8067
   6   2.0000     -11.392537      -310.0067
   7   2.0000     -11.386656      -309.8467
   8   2.0000     -11.338880      -308.5466
   9   2.0000     -11.322450      -308.0995
  10   2.0000     -11.316049      -307.9253
  11   2.0000     -11.295637      -307.3699
  12   2.0000     -11.267776      -306.6118
  13   2.0000     -11.264084      -306.5113
  14   2.0000     -11.260918      -306.4252
  15   2.0000     -11.254392      -306.2476
  16   2.0000     -11.251031      -306.1561
  17   2.0000     -11.246193      -306.0245
  18   2.0000     -11.245302      -306.0002
  19   2.0000     -11.222353      -305.3757
  20   2.0000      -8.897321      -242.1084
  21   2.0000      -6.578877      -179.0204
  22   2.0000      -6.576893      -178.9664
  23   2.0000      -6.576290      -178.9500
  24   2.0000      -1.445862       -39.3439
  25   2.0000      -1.424163       -38.7535
  26   2.0000      -1.353864       -36.8405
  27   2.0000      -1.344302       -36.5803
  28   2.0000      -1.242730       -33.8164
  29   2.0000      -1.165006       -31.7014
  30   2.0000      -1.122595       -30.5474
  31   2.0000      -1.048711       -28.5369
  32   2.0000      -1.032403       -28.0931
  33   2.0000      -1.023804       -27.8591
  34   2.0000      -1.000534       -27.2259
  35   2.0000      -0.987456       -26.8701
  36   2.0000      -0.927794       -25.2465
  37   2.0000      -0.878938       -23.9171
  38   2.0000      -0.852146       -23.1881
  39   2.0000      -0.847925       -23.0732
  40   2.0000      -0.841535       -22.8993
  41   2.0000      -0.833523       -22.6813
  42   2.0000      -0.760172       -20.6853
  43   2.0000      -0.738024       -20.0827
  44   2.0000      -0.719331       -19.5740
  45   2.0000      -0.704216       -19.1627
  46   2.0000      -0.695083       -18.9142
  47   2.0000      -0.677924       -18.4472
  48   2.0000      -0.669828       -18.2270
  49   2.0000      -0.668033       -18.1781
  50   2.0000      -0.652427       -17.7534
  51   2.0000      -0.648379       -17.6433
  52   2.0000      -0.641724       -17.4622
  53   2.0000      -0.615966       -16.7613
  54   2.0000      -0.607952       -16.5432
  55   2.0000      -0.603195       -16.4138
  56   2.0000      -0.587549       -15.9880
  57   2.0000      -0.583464       -15.8769
  58   2.0000      -0.576633       -15.6910
  59   2.0000      -0.573922       -15.6172
  60   2.0000      -0.565134       -15.3781
  61   2.0000      -0.543437       -14.7877
  62   2.0000      -0.540632       -14.7113
  63   2.0000      -0.533289       -14.5115
  64   2.0000      -0.519979       -14.1494
  65   2.0000      -0.512755       -13.9528
  66   2.0000      -0.508939       -13.8489
  67   2.0000      -0.501759       -13.6536
  68   2.0000      -0.485087       -13.1999
  69   2.0000      -0.466091       -12.6830
  70   2.0000      -0.450682       -12.2637
  71   2.0000      -0.444779       -12.1030
  72   2.0000      -0.361430        -9.8350
  73   2.0000      -0.356540        -9.7020
  74   2.0000      -0.333177        -9.0662
  75   2.0000      -0.328401        -8.9362
  76   2.0000      -0.319054        -8.6819
  77   0.0000       0.070219         1.9108
  78   0.0000       0.098339         2.6759
  79   0.0000       0.118696         3.2299
  80   0.0000       0.125141         3.4052
  81   0.0000       0.129053         3.5117

MULLIKEN ATOMIC CHARGES
-----------------------
   0 C :   -0.255889
   1 C :    0.018807
   2 O :   -0.356577
   3 C :    0.473358
   4 O :   -0.388861
   5 C :   -0.275171
   6 C :    0.139048
   7 C :   -0.270043
   8 N :   -0.123838
   9 C :    0.215610
  10 S :   -0.434449
  11 N :   -0.202376
  12 C :    0.053157
  13 C :    0.060638
  14 C :   -0.224597
  15 C :   -0.122059
  16 C :   -0.274914
  17 C :    0.314517
  18 O :   -0.355767
  19 C :   -0.257303
  20 H :    0.101864
  21 H :    0.085879
  22 H :    0.097987
  23 H :    0.097868
  24 H :    0.108536
  25 H :    0.125259
  26 H :    0.140460
  27 H :    0.093931
  28 H :    0.199443
  29 H :    0.191181
  30 H :    0.153556
  31 H :    0.155735
  32 H :    0.164908
  33 H :    0.133728
  34 H :    0.242816
  35 H :    0.173554
Sum of atomic charges:   -0.0000000

LOEWDIN ATOMIC CHARGES
----------------------
   0 C :    0.107383
   1 C :   -0.026501
   2 O :    0.296107
   3 C :   -0.426640
   4 O :    0.120892
   5 C :   -0.100322
   6 C :   -0.058973
   7 C :    0.130353
   8 N :    0.408025
   9 C :   -0.454637
  10 S :   -0.030092
  11 N :    0.395976
  12 C :   -0.051574
  13 C :   -0.037106
  14 C :    0.009851
  15 C :    0.042982
  16 C :    0.000166
  17 C :   -0.189797
  18 O :    0.396652
  19 C :    0.030556
  20 H :   -0.024344
  21 H :   -0.028923
  22 H :   -0.025928
  23 H :   -0.032525
  24 H :   -0.029809
  25 H :   -0.006163
  26 H :   -0.001859
  27 H :   -0.022976
  28 H :   -0.056975
  29 H :   -0.066551
  30 H :   -0.005035
  31 H :   -0.030708
  32 H :   -0.019039
  33 H :   -0.033758
  34 H :   -0.151680
  35 H :   -0.027028

  Mayer bond orders larger than 0.100000
B(  0-C ,  1-C ) :   0.9815 B(  0-C , 20-H ) :   0.9773 B(  0-C , 21-H ) :   0.9778
B(  0-C , 22-H ) :   0.9807 B(  1-C ,  2-O ) :   0.8764 B(  1-C , 23-H ) :   0.9658
B(  1-C , 24-H ) :   0.9747 B(  2-O ,  3-C ) :   1.1341 B(  3-C ,  4-O ) :   2.0562
B(  3-C ,  5-C ) :   1.0206 B(  5-C ,  6-C ) :   1.6537 B(  5-C , 12-C ) :   0.9654
B(  6-C ,  7-C ) :   0.9754 B(  6-C ,  8-N ) :   1.1529 B(  7-C , 25-H ) :   0.9661
B(  7-C , 26-H ) :   0.9538 B(  7-C , 27-H ) :   0.9868 B(  8-N ,  9-C ) :   1.1797
B(  8-N , 28-H ) :   0.9486 B(  9-C , 10-S ) :   1.6153 B(  9-C , 11-N ) :   1.2992
B( 11-N , 12-C ) :   0.9570 B( 11-N , 29-H ) :   0.9539 B( 12-C , 13-C ) :   0.9567
B( 12-C , 30-H ) :   0.9988 B( 13-C , 14-C ) :   1.3476 B( 13-C , 19-C ) :   1.3597
B( 14-C , 15-C ) :   1.3866 B( 14-C , 31-H ) :   0.9746 B( 15-C , 16-C ) :   1.3689
B( 15-C , 32-H ) :   0.9689 B( 16-C , 17-C ) :   1.3283 B( 16-C , 33-H ) :   0.9835
B( 17-C , 18-O ) :   1.1168 B( 17-C , 19-C ) :   1.3727 B( 18-O , 34-H ) :   0.9784
B( 19-C , 35-H ) :   0.9545

MP2 TOTAL ENERGY:    -1274.331118428 Eh
FINAL SINGLE POINT ENERGY     -1274.331118428180

DIPOLE MOMENT
-------------
                                X             Y             Z
Electronic contribution:     10.08496       9.67937       6.08939
Nuclear contribution   :    -11.20276     -11.22900      -5.42227
                        -----------------------------------------
Total Dipole Moment    :     -1.11780      -1.54962       0.66712
                        -----------------------------------------
Magnitude (a.u.)       :      2.02382
Magnitude (Debye)      :      5.14414

Rotational constants in cm-1:     0.011413     0.009398     0.006420
Rotational constants in MHz :   342.154925   281.748126   192.463325

                             ****ORCA TERMINATED NORMALLY****
TOTAL RUN TIME: 0 days 1 hours 45 minutes 36 seconds 545 msec
