                         Program Version 4.2.0 -  RELEASE  -
|  1> ! ri-mp2 cc-pvtz cc-pvtz/c TightSCF  NoKeepInts
|  2>
|  3> %scf
|  4>   MaxCore 4096
|  5> end
|  6> *xyz  0  1
|  7>     C       16.0889025   13.0726608   16.1492487
|  8>     C       15.5909525   14.5275794   16.1438911
|  9>     O       16.6820654   15.3594668   16.5679523
| 10>     C       16.5144362   16.7152558   16.5570523
| 11>     O       15.6169259   17.2517772   15.9293435
| 12>     C       17.4393584   17.4245761   17.5071869
| 13>     C       17.4612770   18.7762578   17.6281198
| 14>     C       16.6086971   19.7773298   16.8781905
| 15>     N       18.3699298   19.3878596   18.4970067
| 16>     C       19.3522836   18.7335888   19.1912491
| 17>     S       20.4515260   19.5436169   20.1247734
| 18>     N       19.3816162   17.3677746   19.0698153
| 19>     C       18.3721604   16.5552706   18.3666531
| 20>     C       17.5985573   15.7113140   19.3757122
| 21>     C       17.7615040   14.3136695   19.4087855
| 22>     C       17.0486006   13.5321651   20.3335053
| 23>     C       16.1682138   14.1534152   21.2356395
| 24>     C       16.0080202   15.5456618   21.2094680
| 25>     O       15.1601015   16.1485471   22.0804333
| 26>     C       16.7184239   16.3206423   20.2876052
| 27>     H       16.3906198   12.7719768   17.1600353
| 28>     H       16.9494873   12.9555122   15.4790400
| 29>     H       15.2956660   12.3943870   15.8122604
| 30>     H       15.2698399   14.8029136   15.1298887
| 31>     H       14.7372107   14.6403713   16.8255644
| 32>     H       15.5457976   19.6225258   17.1040202
| 33>     H       16.7335693   19.6566231   15.7946042
| 34>     H       16.8516809   20.8176147   17.1243349
| 35>     H       18.3643195   20.3903431   18.5972976
| 36>     H       20.0937343   16.9103168   19.6242805
| 37>     H       18.9118986   15.8780237   17.6898234
| 38>     H       18.4378475   13.8307434   18.7086134
| 39>     H       17.1796158   12.4516306   20.3494718
| 40>     H       15.6157775   13.5544759   21.9521194
| 41>     H       14.7905498   15.4589850   22.6520233
| 42>     H       16.5858332   17.3971279   20.2889907
| 43> *
| 44>
| 45>                          ****END OF INPUT****

CARTESIAN COORDINATES (ANGSTROEM)
---------------------------------
  C     16.088902   13.072661   16.149249
  C     15.590952   14.527579   16.143891
  O     16.682065   15.359467   16.567952
  C     16.514436   16.715256   16.557052
  O     15.616926   17.251777   15.929343
  C     17.439358   17.424576   17.507187
  C     17.461277   18.776258   17.628120
  C     16.608697   19.777330   16.878190
  N     18.369930   19.387860   18.497007
  C     19.352284   18.733589   19.191249
  S     20.451526   19.543617   20.124773
  N     19.381616   17.367775   19.069815
  C     18.372160   16.555271   18.366653
  C     17.598557   15.711314   19.375712
  C     17.761504   14.313669   19.408786
  C     17.048601   13.532165   20.333505
  C     16.168214   14.153415   21.235640
  C     16.008020   15.545662   21.209468
  O     15.160101   16.148547   22.080433
  C     16.718424   16.320642   20.287605
  H     16.390620   12.771977   17.160035
  H     16.949487   12.955512   15.479040
  H     15.295666   12.394387   15.812260
  H     15.269840   14.802914   15.129889
  H     14.737211   14.640371   16.825564
  H     15.545798   19.622526   17.104020
  H     16.733569   19.656623   15.794604
  H     16.851681   20.817615   17.124335
  H     18.364320   20.390343   18.597298
  H     20.093734   16.910317   19.624281
  H     18.911899   15.878024   17.689823
  H     18.437848   13.830743   18.708613
  H     17.179616   12.451631   20.349472
  H     15.615778   13.554476   21.952119
  H     14.790550   15.458985   22.652023
  H     16.585833   17.397128   20.288991

 Total Charge           Charge          ....    0
 Multiplicity           Mult            ....    1
 Number of Electrons    NEL             ....  154
 Basis Dimension        Dim             ....  828

ORBITAL ENERGIES
----------------

  NO   OCC          E(Eh)            E(eV)
   0   2.0000     -91.888944     -2500.4253
   1   2.0000     -20.600736      -560.5745
   2   2.0000     -20.596755      -560.4662
   3   2.0000     -20.541967      -558.9753
   4   2.0000     -15.629107      -425.2896
   5   2.0000     -15.608383      -424.7257
   6   2.0000     -11.393813      -310.0414
   7   2.0000     -11.384078      -309.7765
   8   2.0000     -11.335907      -308.4657
   9   2.0000     -11.313989      -307.8693
  10   2.0000     -11.309269      -307.7409
  11   2.0000     -11.295487      -307.3658
  12   2.0000     -11.259872      -306.3967
  13   2.0000     -11.258809      -306.3678
  14   2.0000     -11.255565      -306.2795
  15   2.0000     -11.251981      -306.1820
  16   2.0000     -11.243356      -305.9473
  17   2.0000     -11.238661      -305.8195
  18   2.0000     -11.238360      -305.8113
  19   2.0000     -11.230093      -305.5864
  20   2.0000      -8.894003      -242.0181
  21   2.0000      -6.575577      -178.9305
  22   2.0000      -6.573573      -178.8760
  23   2.0000      -6.572986      -178.8600
  24   2.0000      -1.452513       -39.5249
  25   2.0000      -1.416408       -38.5424
  26   2.0000      -1.354549       -36.8592
  27   2.0000      -1.340099       -36.4660
  28   2.0000      -1.238624       -33.7047
  29   2.0000      -1.157885       -31.5077
  30   2.0000      -1.120531       -30.4912
  31   2.0000      -1.043386       -28.3920
  32   2.0000      -1.039656       -28.2905
  33   2.0000      -1.015499       -27.6331
  34   2.0000      -0.995856       -27.0986
  35   2.0000      -0.984507       -26.7898
  36   2.0000      -0.922691       -25.1077
  37   2.0000      -0.887678       -24.1549
  38   2.0000      -0.846799       -23.0426
  39   2.0000      -0.837606       -22.7924
  40   2.0000      -0.834175       -22.6991
  41   2.0000      -0.818019       -22.2594
  42   2.0000      -0.765132       -20.8203
  43   2.0000      -0.732484       -19.9319
  44   2.0000      -0.721251       -19.6262
  45   2.0000      -0.696009       -18.9394
  46   2.0000      -0.685854       -18.6630
  47   2.0000      -0.679423       -18.4881
  48   2.0000      -0.678305       -18.4576
  49   2.0000      -0.663743       -18.0614
  50   2.0000      -0.646085       -17.5809
  51   2.0000      -0.645587       -17.5673
  52   2.0000      -0.636281       -17.3141
  53   2.0000      -0.607302       -16.5255
  54   2.0000      -0.600485       -16.3400
  55   2.0000      -0.599316       -16.3082
  56   2.0000      -0.593607       -16.1529
  57   2.0000      -0.577756       -15.7216
  58   2.0000      -0.570808       -15.5325
  59   2.0000      -0.567835       -15.4516
  60   2.0000      -0.561207       -15.2712
  61   2.0000      -0.550127       -14.9697
  62   2.0000      -0.539612       -14.6836
  63   2.0000      -0.525380       -14.2963
  64   2.0000      -0.518033       -14.0964
  65   2.0000      -0.513197       -13.9648
  66   2.0000      -0.507219       -13.8021
  67   2.0000      -0.499737       -13.5985
  68   2.0000      -0.485619       -13.2144
  69   2.0000      -0.465519       -12.6674
  70   2.0000      -0.458357       -12.4725
  71   2.0000      -0.446930       -12.1616
  72   2.0000      -0.354344        -9.6422
  73   2.0000      -0.349737        -9.5168
  74   2.0000      -0.328316        -8.9339
  75   2.0000      -0.321428        -8.7465
  76   2.0000      -0.316160        -8.6031
  77   0.0000       0.075944         2.0665
  78   0.0000       0.105078         2.8593
  79   0.0000       0.125081         3.4036
  80   0.0000       0.132416         3.6032
  81   0.0000       0.137528         3.7423

MULLIKEN ATOMIC CHARGES
-----------------------
   0 C :   -0.275499
   1 C :    0.042168
   2 O :   -0.346658
   3 C :    0.449356
   4 O :   -0.429178
   5 C :   -0.222366
   6 C :    0.153936
   7 C :   -0.272774
   8 N :   -0.122005
   9 C :    0.212179
  10 S :   -0.439913
  11 N :   -0.204417
  12 C :    0.056263
  13 C :    0.069301
  14 C :   -0.199029
  15 C :   -0.125208
  16 C :   -0.280620
  17 C :    0.316485
  18 O :   -0.356530
  19 C :   -0.270220
  20 H :    0.093827
  21 H :    0.096336
  22 H :    0.098253
  23 H :    0.110705
  24 H :    0.091340
  25 H :    0.132448
  26 H :    0.130630
  27 H :    0.095097
  28 H :    0.197439
  29 H :    0.194702
  30 H :    0.149848
  31 H :    0.155454
  32 H :    0.162468
  33 H :    0.130301
  34 H :    0.240763
  35 H :    0.165116
Sum of atomic charges:   -0.0000000

LOEWDIN ATOMIC CHARGES
----------------------
   0 C :    0.107206
   1 C :   -0.017166
   2 O :    0.307894
   3 C :   -0.414350
   4 O :    0.097655
   5 C :   -0.095219
   6 C :   -0.059096
   7 C :    0.131618
   8 N :    0.406598
   9 C :   -0.456183
  10 S :   -0.035368
  11 N :    0.396380
  12 C :   -0.052403
  13 C :   -0.038369
  14 C :    0.014369
  15 C :    0.038574
  16 C :   -0.001740
  17 C :   -0.189442
  18 O :    0.395293
  19 C :    0.031660
  20 H :   -0.029895
  21 H :   -0.027368
  22 H :   -0.024306
  23 H :   -0.027585
  24 H :   -0.028533
  25 H :   -0.004428
  26 H :   -0.003969
  27 H :   -0.023389
  28 H :   -0.057541
  29 H :   -0.064663
  30 H :   -0.010733
  31 H :   -0.030663
  32 H :   -0.021668
  33 H :   -0.035514
  34 H :   -0.153894
  35 H :   -0.023760

  Mayer bond orders larger than 0.100000
B(  0-C ,  1-C ) :   0.9715 B(  0-C , 20-H ) :   0.9762 B(  0-C , 21-H ) :   0.9766
B(  0-C , 22-H ) :   0.9791 B(  1-C ,  2-O ) :   0.8965 B(  1-C , 23-H ) :   0.9812
B(  1-C , 24-H ) :   0.9730 B(  2-O ,  3-C ) :   1.1719 B(  3-C ,  4-O ) :   1.9790
B(  3-C ,  5-C ) :   1.0573 B(  5-C ,  6-C ) :   1.6569 B(  5-C , 12-C ) :   0.9728
B(  6-C ,  7-C ) :   0.9673 B(  6-C ,  8-N ) :   1.1635 B(  7-C , 25-H ) :   0.9597
B(  7-C , 26-H ) :   0.9608 B(  7-C , 27-H ) :   0.9904 B(  8-N ,  9-C ) :   1.1831
B(  8-N , 28-H ) :   0.9478 B(  9-C , 10-S ) :   1.6070 B(  9-C , 11-N ) :   1.3053
B( 11-N , 12-C ) :   0.9858 B( 11-N , 29-H ) :   0.9517 B( 12-C , 13-C ) :   0.9358
B( 12-C , 30-H ) :   1.0031 B( 13-C , 14-C ) :   1.3572 B( 13-C , 19-C ) :   1.3814
B( 14-C , 15-C ) :   1.3849 B( 14-C , 31-H ) :   0.9692 B( 15-C , 16-C ) :   1.3663
B( 15-C , 32-H ) :   0.9695 B( 16-C , 17-C ) :   1.3309 B( 16-C , 33-H ) :   0.9848
B( 17-C , 18-O ) :   1.1101 B( 17-C , 19-C ) :   1.3726 B( 18-O , 34-H ) :   0.9798
B( 19-C , 35-H ) :   0.9583

MP2 TOTAL ENERGY:    -1274.350608605 Eh
FINAL SINGLE POINT ENERGY     -1274.350608604596

DIPOLE MOMENT
-------------
                                X             Y             Z
Electronic contribution:      8.68879      11.25882       7.85141
Nuclear contribution   :     -9.82789     -12.86242      -8.23111
                        -----------------------------------------
Total Dipole Moment    :     -1.13910      -1.60360      -0.37970
                        -----------------------------------------
Magnitude (a.u.)       :      2.00331
Magnitude (Debye)      :      5.09200

Rotational constants in cm-1:     0.011922     0.008456     0.006212
Rotational constants in MHz :   357.413499   253.518500   186.228855

                             ****ORCA TERMINATED NORMALLY****
TOTAL RUN TIME: 0 days 2 hours 13 minutes 53 seconds 891 msec
