                         Program Version 4.2.0 -  RELEASE  -
|  1> ! ri-mp2 cc-pvtz cc-pvtz/c TightSCF  NoKeepInts
|  2>
|  3> %scf
|  4>   MaxCore 4096
|  5> end
|  6> *xyz  0  1
|  7>     C       15.0116273   14.0742468   16.7534897
|  8>     C       15.4464575   15.5464076   16.6636828
|  9>     O       16.6472050   15.5971022   15.8694822
| 10>     C       17.8493374   15.7001572   16.5077789
| 11>     O       18.5783689   14.7302304   16.6096738
| 12>     C       18.0011243   16.9099021   17.3795297
| 13>     C       17.5252796   18.1370971   17.0548255
| 14>     C       16.8217499   18.5402795   15.7759552
| 15>     N       17.7422845   19.2159750   17.9164424
| 16>     C       18.5267979   19.1732504   19.0395066
| 17>     S       18.8099243   20.5217163   19.9536105
| 18>     N       19.0613998   17.9525813   19.3698700
| 19>     C       18.7482436   16.6783859   18.6941462
| 20>     C       17.9376320   15.7607423   19.6057882
| 21>     C       18.3098432   14.4141935   19.7717887
| 22>     C       17.5503625   13.5552404   20.5834495
| 23>     C       16.4058148   14.0452239   21.2347625
| 24>     C       16.0286300   15.3844272   21.0689270
| 25>     O       14.9164371   15.8580862   21.6846827
| 26>     C       16.7864211   16.2371902   20.2602064
| 27>     H       15.7776689   13.4785728   17.2670485
| 28>     H       14.8603408   13.6520272   15.7521800
| 29>     H       14.0735021   13.9815268   17.3137693
| 30>     H       14.6535807   16.1184943   16.1652750
| 31>     H       15.5910860   15.9612094   17.6698045
| 32>     H       17.1884055   17.9614987   14.9186554
| 33>     H       16.9881296   19.5970991   15.5325246
| 34>     H       15.7400333   18.3807080   15.8537802
| 35>     H       17.3644455   20.1221778   17.6886687
| 36>     H       19.6158623   17.9448676   20.2166698
| 37>     H       19.7002760   16.1803081   18.4584196
| 38>     H       19.1823746   14.0262572   19.2506765
| 39>     H       17.8466689   12.5138581   20.6975240
| 40>     H       15.8145851   13.3837684   21.8594034
| 41>     H       14.5699059   15.1470632   22.2449855
| 42>     H       16.4751943   17.2701280   20.1470167
| 43> *
| 44>
| 45>                          ****END OF INPUT****

CARTESIAN COORDINATES (ANGSTROEM)
---------------------------------
  C     15.011627   14.074247   16.753490
  C     15.446457   15.546408   16.663683
  O     16.647205   15.597102   15.869482
  C     17.849337   15.700157   16.507779
  O     18.578369   14.730230   16.609674
  C     18.001124   16.909902   17.379530
  C     17.525280   18.137097   17.054825
  C     16.821750   18.540280   15.775955
  N     17.742284   19.215975   17.916442
  C     18.526798   19.173250   19.039507
  S     18.809924   20.521716   19.953610
  N     19.061400   17.952581   19.369870
  C     18.748244   16.678386   18.694146
  C     17.937632   15.760742   19.605788
  C     18.309843   14.414193   19.771789
  C     17.550362   13.555240   20.583450
  C     16.405815   14.045224   21.234762
  C     16.028630   15.384427   21.068927
  O     14.916437   15.858086   21.684683
  C     16.786421   16.237190   20.260206
  H     15.777669   13.478573   17.267049
  H     14.860341   13.652027   15.752180
  H     14.073502   13.981527   17.313769
  H     14.653581   16.118494   16.165275
  H     15.591086   15.961209   17.669804
  H     17.188405   17.961499   14.918655
  H     16.988130   19.597099   15.532525
  H     15.740033   18.380708   15.853780
  H     17.364445   20.122178   17.688669
  H     19.615862   17.944868   20.216670
  H     19.700276   16.180308   18.458420
  H     19.182375   14.026257   19.250677
  H     17.846669   12.513858   20.697524
  H     15.814585   13.383768   21.859403
  H     14.569906   15.147063   22.244985
  H     16.475194   17.270128   20.147017

 Total Charge           Charge          ....    0
 Multiplicity           Mult            ....    1
 Number of Electrons    NEL             ....  154
 Basis Dimension        Dim             ....  828

ORBITAL ENERGIES
----------------

  NO   OCC          E(Eh)            E(eV)
   0   2.0000     -91.891228     -2500.4874
   1   2.0000     -20.598689      -560.5188
   2   2.0000     -20.588074      -560.2300
   3   2.0000     -20.554259      -559.3098
   4   2.0000     -15.630759      -425.3346
   5   2.0000     -15.610831      -424.7923
   6   2.0000     -11.395128      -310.0772
   7   2.0000     -11.386991      -309.8558
   8   2.0000     -11.336355      -308.4779
   9   2.0000     -11.315231      -307.9031
  10   2.0000     -11.311024      -307.7886
  11   2.0000     -11.302908      -307.5678
  12   2.0000     -11.264732      -306.5289
  13   2.0000     -11.262117      -306.4578
  14   2.0000     -11.260999      -306.4274
  15   2.0000     -11.254933      -306.2623
  16   2.0000     -11.244543      -305.9796
  17   2.0000     -11.240921      -305.8810
  18   2.0000     -11.237329      -305.7833
  19   2.0000     -11.224618      -305.4374
  20   2.0000      -8.896298      -242.0806
  21   2.0000      -6.577873      -178.9930
  22   2.0000      -6.575863      -178.9383
  23   2.0000      -6.575276      -178.9224
  24   2.0000      -1.450231       -39.4628
  25   2.0000      -1.418509       -38.5996
  26   2.0000      -1.359305       -36.9886
  27   2.0000      -1.342153       -36.5218
  28   2.0000      -1.240430       -33.7538
  29   2.0000      -1.159519       -31.5521
  30   2.0000      -1.124115       -30.5887
  31   2.0000      -1.047034       -28.4912
  32   2.0000      -1.033495       -28.1228
  33   2.0000      -1.017030       -27.6748
  34   2.0000      -1.003253       -27.2999
  35   2.0000      -0.988421       -26.8963
  36   2.0000      -0.926510       -25.2116
  37   2.0000      -0.881616       -23.9900
  38   2.0000      -0.854350       -23.2481
  39   2.0000      -0.842490       -22.9253
  40   2.0000      -0.835359       -22.7313
  41   2.0000      -0.833611       -22.6837
  42   2.0000      -0.751716       -20.4552
  43   2.0000      -0.736587       -20.0435
  44   2.0000      -0.730662       -19.8823
  45   2.0000      -0.696925       -18.9643
  46   2.0000      -0.687834       -18.7169
  47   2.0000      -0.678951       -18.4752
  48   2.0000      -0.676976       -18.4215
  49   2.0000      -0.664873       -18.0921
  50   2.0000      -0.653120       -17.7723
  51   2.0000      -0.649094       -17.6628
  52   2.0000      -0.640513       -17.4292
  53   2.0000      -0.608922       -16.5696
  54   2.0000      -0.607199       -16.5227
  55   2.0000      -0.602653       -16.3990
  56   2.0000      -0.594188       -16.1687
  57   2.0000      -0.579952       -15.7813
  58   2.0000      -0.579116       -15.7586
  59   2.0000      -0.573383       -15.6025
  60   2.0000      -0.563138       -15.3238
  61   2.0000      -0.556475       -15.1425
  62   2.0000      -0.541399       -14.7322
  63   2.0000      -0.524955       -14.2847
  64   2.0000      -0.516592       -14.0572
  65   2.0000      -0.514095       -13.9892
  66   2.0000      -0.502226       -13.6663
  67   2.0000      -0.497255       -13.5310
  68   2.0000      -0.486120       -13.2280
  69   2.0000      -0.469702       -12.7812
  70   2.0000      -0.458637       -12.4801
  71   2.0000      -0.449213       -12.2237
  72   2.0000      -0.357536        -9.7290
  73   2.0000      -0.350745        -9.5442
  74   2.0000      -0.330514        -8.9937
  75   2.0000      -0.322522        -8.7763
  76   2.0000      -0.318953        -8.6791
  77   0.0000       0.072011         1.9595
  78   0.0000       0.103685         2.8214
  79   0.0000       0.118405         3.2220
  80   0.0000       0.129469         3.5230
  81   0.0000       0.135498         3.6871

MULLIKEN ATOMIC CHARGES
-----------------------
   0 C :   -0.253962
   1 C :    0.003537
   2 O :   -0.357845
   3 C :    0.460529
   4 O :   -0.386307
   5 C :   -0.244972
   6 C :    0.162150
   7 C :   -0.298777
   8 N :   -0.126830
   9 C :    0.198081
  10 S :   -0.436536
  11 N :   -0.204921
  12 C :    0.064316
  13 C :    0.043137
  14 C :   -0.178961
  15 C :   -0.133557
  16 C :   -0.277440
  17 C :    0.322627
  18 O :   -0.358960
  19 C :   -0.305117
  20 H :    0.108347
  21 H :    0.099949
  22 H :    0.087343
  23 H :    0.105279
  24 H :    0.107399
  25 H :    0.136517
  26 H :    0.115331
  27 H :    0.120328
  28 H :    0.197469
  29 H :    0.195544
  30 H :    0.159095
  31 H :    0.164083
  32 H :    0.163650
  33 H :    0.131786
  34 H :    0.241498
  35 H :    0.176192
Sum of atomic charges:    0.0000000

LOEWDIN ATOMIC CHARGES
----------------------
   0 C :    0.109345
   1 C :   -0.021940
   2 O :    0.294388
   3 C :   -0.420431
   4 O :    0.130372
   5 C :   -0.094408
   6 C :   -0.078859
   7 C :    0.128339
   8 N :    0.404051
   9 C :   -0.457971
  10 S :   -0.034058
  11 N :    0.397099
  12 C :   -0.045962
  13 C :   -0.043087
  14 C :    0.022383
  15 C :    0.043878
  16 C :   -0.000762
  17 C :   -0.194817
  18 O :    0.393901
  19 C :    0.026308
  20 H :   -0.022391
  21 H :   -0.025027
  22 H :   -0.028079
  23 H :   -0.031050
  24 H :   -0.034850
  25 H :   -0.005895
  26 H :   -0.016204
  27 H :   -0.013888
  28 H :   -0.057961
  29 H :   -0.063642
  30 H :   -0.003411
  31 H :   -0.022891
  32 H :   -0.019288
  33 H :   -0.034977
  34 H :   -0.153185
  35 H :   -0.025028

  Mayer bond orders larger than 0.100000
B(  0-C ,  1-C ) :   0.9891 B(  0-C , 20-H ) :   0.9737 B(  0-C , 21-H ) :   0.9782
B(  0-C , 22-H ) :   0.9763 B(  1-C ,  2-O ) :   0.8876 B(  1-C , 23-H ) :   0.9800
B(  1-C , 24-H ) :   0.9589 B(  2-O ,  3-C ) :   1.1310 B(  3-C ,  4-O ) :   2.0663
B(  3-C ,  5-C ) :   0.9708 B(  5-C ,  6-C ) :   1.6665 B(  5-C , 12-C ) :   0.9597
B(  6-C ,  7-C ) :   0.9479 B(  6-C ,  8-N ) :   1.1381 B(  7-C , 25-H ) :   0.9695
B(  7-C , 26-H ) :   0.9841 B(  7-C , 27-H ) :   0.9649 B(  8-N ,  9-C ) :   1.1840
B(  8-N , 28-H ) :   0.9499 B(  9-C , 10-S ) :   1.6151 B(  9-C , 11-N ) :   1.2964
B( 11-N , 12-C ) :   0.9951 B( 11-N , 29-H ) :   0.9512 B( 12-C , 13-C ) :   0.9426
B( 12-C , 30-H ) :   0.9986 B( 13-C , 14-C ) :   1.3849 B( 13-C , 19-C ) :   1.3455
B( 14-C , 15-C ) :   1.3958 B( 14-C , 31-H ) :   0.9606 B( 15-C , 16-C ) :   1.3631
B( 15-C , 32-H ) :   0.9700 B( 16-C , 17-C ) :   1.3312 B( 16-C , 33-H ) :   0.9844
B( 17-C , 18-O ) :   1.1112 B( 17-C , 19-C ) :   1.3656 B( 18-O , 34-H ) :   0.9795
B( 19-C , 35-H ) :   0.9584

MP2 TOTAL ENERGY:    -1274.331881560 Eh
FINAL SINGLE POINT ENERGY     -1274.331881560091

DIPOLE MOMENT
-------------
                                X             Y             Z
Electronic contribution:     10.52246       9.22783       6.45693
Nuclear contribution   :    -11.98267     -10.16151      -6.82450
                        -----------------------------------------
Total Dipole Moment    :     -1.46021      -0.93368      -0.36758
                        -----------------------------------------
Magnitude (a.u.)       :      1.77175
Magnitude (Debye)      :      4.50343

Rotational constants in cm-1:     0.012114     0.009244     0.006707
Rotational constants in MHz :   363.176432   277.132863   201.067553

                             ****ORCA TERMINATED NORMALLY****
TOTAL RUN TIME: 0 days 1 hours 37 minutes 28 seconds 106 msec
