                         Program Version 4.2.0 -  RELEASE  -
|  1> ! ri-mp2 cc-pvtz cc-pvtz/c TightSCF  NoKeepInts
|  2>
|  3> %scf
|  4>   MaxCore 4096
|  5> end
|  6> *xyz  0  1
|  7>     C       14.4648737   15.8170434   16.3733856
|  8>     C       15.5230642   15.1922981   17.2999554
|  9>     O       16.7293089   14.9358476   16.5500193
| 10>     C       17.8172972   15.7690184   16.4563613
| 11>     O       18.8525993   15.3467228   15.9775502
| 12>     C       17.8571076   16.9064977   17.4181048
| 13>     C       17.3827686   18.1291379   17.0930537
| 14>     C       16.7687228   18.5435104   15.7744415
| 15>     N       17.5247807   19.1913724   17.9878863
| 16>     C       18.2040650   19.1238125   19.1766059
| 17>     S       18.3479237   20.4371107   20.1708153
| 18>     N       18.7586380   17.9104920   19.5041075
| 19>     C       18.6250220   16.6657575   18.7201820
| 20>     C       18.0196917   15.5346660   19.5477878
| 21>     C       18.4585291   14.2125591   19.3488791
| 22>     C       17.9000263   13.1531337   20.0826868
| 23>     C       16.8928016   13.4158070   21.0262776
| 24>     C       16.4507705   14.7300108   21.2274049
| 25>     O       15.4693460   14.9858331   22.1281502
| 26>     C       17.0068599   15.7833045   20.4942033
| 27>     H       14.7069448   16.8514584   16.1218432
| 28>     H       13.4845538   15.8158434   16.8655705
| 29>     H       14.3773906   15.2412900   15.4431970
| 30>     H       15.6904424   15.8305437   18.1742369
| 31>     H       15.1360734   14.2321751   17.6656049
| 32>     H       16.6666896   17.7041133   15.0758536
| 33>     H       17.3990041   19.2920415   15.2772945
| 34>     H       15.7746794   18.9841657   15.9187743
| 35>     H       17.1466675   20.0964176   17.7553254
| 36>     H       19.2432540   17.8889813   20.3927152
| 37>     H       19.6405639   16.3523064   18.4354237
| 38>     H       19.2273888   14.0033778   18.6074918
| 39>     H       18.2458689   12.1345065   19.9139844
| 40>     H       16.4576248   12.5995483   21.5936109
| 41>     H       15.2554095   14.1507406   22.5715033
| 42>     H       16.6402478   16.7905547   20.6637119
| 43> *
| 44>
| 45>                          ****END OF INPUT****

CARTESIAN COORDINATES (ANGSTROEM)
---------------------------------
  C     14.464874   15.817043   16.373386
  C     15.523064   15.192298   17.299955
  O     16.729309   14.935848   16.550019
  C     17.817297   15.769018   16.456361
  O     18.852599   15.346723   15.977550
  C     17.857108   16.906498   17.418105
  C     17.382769   18.129138   17.093054
  C     16.768723   18.543510   15.774441
  N     17.524781   19.191372   17.987886
  C     18.204065   19.123812   19.176606
  S     18.347924   20.437111   20.170815
  N     18.758638   17.910492   19.504107
  C     18.625022   16.665758   18.720182
  C     18.019692   15.534666   19.547788
  C     18.458529   14.212559   19.348879
  C     17.900026   13.153134   20.082687
  C     16.892802   13.415807   21.026278
  C     16.450771   14.730011   21.227405
  O     15.469346   14.985833   22.128150
  C     17.006860   15.783304   20.494203
  H     14.706945   16.851458   16.121843
  H     13.484554   15.815843   16.865571
  H     14.377391   15.241290   15.443197
  H     15.690442   15.830544   18.174237
  H     15.136073   14.232175   17.665605
  H     16.666690   17.704113   15.075854
  H     17.399004   19.292041   15.277294
  H     15.774679   18.984166   15.918774
  H     17.146667   20.096418   17.755325
  H     19.243254   17.888981   20.392715
  H     19.640564   16.352306   18.435424
  H     19.227389   14.003378   18.607492
  H     18.245869   12.134507   19.913984
  H     16.457625   12.599548   21.593611
  H     15.255409   14.150741   22.571503
  H     16.640248   16.790555   20.663712

 Total Charge           Charge          ....    0
 Multiplicity           Mult            ....    1
 Number of Electrons    NEL             ....  154
 Basis Dimension        Dim             ....  828

ORBITAL ENERGIES
----------------

  NO   OCC          E(Eh)            E(eV)
   0   2.0000     -91.889327     -2500.4357
   1   2.0000     -20.601603      -560.5981
   2   2.0000     -20.601180      -560.5866
   3   2.0000     -20.552699      -559.2674
   4   2.0000     -15.624294      -425.1586
   5   2.0000     -15.612443      -424.8362
   6   2.0000     -11.398959      -310.1815
   7   2.0000     -11.386467      -309.8415
   8   2.0000     -11.325058      -308.1705
   9   2.0000     -11.318890      -308.0027
  10   2.0000     -11.318872      -308.0022
  11   2.0000     -11.302329      -307.5520
  12   2.0000     -11.267775      -306.6117
  13   2.0000     -11.266769      -306.5844
  14   2.0000     -11.265545      -306.5511
  15   2.0000     -11.259238      -306.3794
  16   2.0000     -11.248082      -306.0759
  17   2.0000     -11.244044      -305.9660
  18   2.0000     -11.241624      -305.9001
  19   2.0000     -11.234752      -305.7131
  20   2.0000      -8.894459      -242.0305
  21   2.0000      -6.576054      -178.9435
  22   2.0000      -6.574020      -178.8882
  23   2.0000      -6.573452      -178.8727
  24   2.0000      -1.448477       -39.4151
  25   2.0000      -1.421420       -38.6788
  26   2.0000      -1.360261       -37.0146
  27   2.0000      -1.339080       -36.4382
  28   2.0000      -1.239955       -33.7409
  29   2.0000      -1.163127       -31.6503
  30   2.0000      -1.126003       -30.6401
  31   2.0000      -1.050215       -28.5778
  32   2.0000      -1.040036       -28.3008
  33   2.0000      -1.021154       -27.7870
  34   2.0000      -1.005692       -27.3663
  35   2.0000      -0.989804       -26.9339
  36   2.0000      -0.928706       -25.2714
  37   2.0000      -0.893149       -24.3038
  38   2.0000      -0.853224       -23.2174
  39   2.0000      -0.842110       -22.9150
  40   2.0000      -0.838536       -22.8177
  41   2.0000      -0.836613       -22.7654
  42   2.0000      -0.755457       -20.5570
  43   2.0000      -0.734880       -19.9971
  44   2.0000      -0.731498       -19.9051
  45   2.0000      -0.699081       -19.0230
  46   2.0000      -0.690915       -18.8008
  47   2.0000      -0.680029       -18.5045
  48   2.0000      -0.677837       -18.4449
  49   2.0000      -0.667581       -18.1658
  50   2.0000      -0.654535       -17.8108
  51   2.0000      -0.640413       -17.4265
  52   2.0000      -0.635584       -17.2951
  53   2.0000      -0.622072       -16.9275
  54   2.0000      -0.611326       -16.6350
  55   2.0000      -0.608467       -16.5572
  56   2.0000      -0.604878       -16.4596
  57   2.0000      -0.588716       -16.0198
  58   2.0000      -0.578974       -15.7547
  59   2.0000      -0.570138       -15.5143
  60   2.0000      -0.567764       -15.4496
  61   2.0000      -0.558482       -15.1971
  62   2.0000      -0.542777       -14.7697
  63   2.0000      -0.536783       -14.6066
  64   2.0000      -0.523634       -14.2488
  65   2.0000      -0.516128       -14.0446
  66   2.0000      -0.503721       -13.7069
  67   2.0000      -0.501808       -13.6549
  68   2.0000      -0.488330       -13.2881
  69   2.0000      -0.471589       -12.8326
  70   2.0000      -0.452238       -12.3060
  71   2.0000      -0.450034       -12.2461
  72   2.0000      -0.357129        -9.7180
  73   2.0000      -0.352219        -9.5844
  74   2.0000      -0.329231        -8.9588
  75   2.0000      -0.326449        -8.8831
  76   2.0000      -0.318699        -8.6722
  77   0.0000       0.093643         2.5481
  78   0.0000       0.103889         2.8270
  79   0.0000       0.114685         3.1207
  80   0.0000       0.127191         3.4611
  81   0.0000       0.128073         3.4851

MULLIKEN ATOMIC CHARGES
-----------------------
   0 C :   -0.290244
   1 C :    0.030244
   2 O :   -0.315868
   3 C :    0.385974
   4 O :   -0.375763
   5 C :   -0.178364
   6 C :    0.142307
   7 C :   -0.343781
   8 N :   -0.139794
   9 C :    0.213194
  10 S :   -0.444118
  11 N :   -0.230221
  12 C :    0.091862
  13 C :   -0.004270
  14 C :   -0.190362
  15 C :   -0.134743
  16 C :   -0.274539
  17 C :    0.317751
  18 O :   -0.355399
  19 C :   -0.271074
  20 H :    0.087531
  21 H :    0.102069
  22 H :    0.112007
  23 H :    0.098944
  24 H :    0.123308
  25 H :    0.120788
  26 H :    0.150948
  27 H :    0.118163
  28 H :    0.195244
  29 H :    0.203881
  30 H :    0.165077
  31 H :    0.165522
  32 H :    0.164763
  33 H :    0.133544
  34 H :    0.241835
  35 H :    0.183583
Sum of atomic charges:   -0.0000000

LOEWDIN ATOMIC CHARGES
----------------------
   0 C :    0.104828
   1 C :   -0.018163
   2 O :    0.310421
   3 C :   -0.419415
   4 O :    0.126800
   5 C :   -0.077755
   6 C :   -0.109944
   7 C :    0.122263
   8 N :    0.400682
   9 C :   -0.454913
  10 S :   -0.039927
  11 N :    0.397464
  12 C :   -0.042832
  13 C :   -0.043342
  14 C :    0.023805
  15 C :    0.046412
  16 C :   -0.000137
  17 C :   -0.193670
  18 O :    0.395639
  19 C :    0.025791
  20 H :   -0.035953
  21 H :   -0.023435
  22 H :   -0.023216
  23 H :   -0.039030
  24 H :   -0.019769
  25 H :   -0.010521
  26 H :   -0.008380
  27 H :   -0.018074
  28 H :   -0.058237
  29 H :   -0.063963
  30 H :   -0.002529
  31 H :   -0.021441
  32 H :   -0.017792
  33 H :   -0.034276
  34 H :   -0.152575
  35 H :   -0.024820

  Mayer bond orders larger than 0.100000
B(  0-C ,  1-C ) :   0.9744 B(  0-C , 20-H ) :   0.9785 B(  0-C , 21-H ) :   0.9778
B(  0-C , 22-H ) :   0.9764 B(  1-C ,  2-O ) :   0.8931 B(  1-C , 23-H ) :   0.9569
B(  1-C , 24-H ) :   0.9801 B(  2-O ,  3-C ) :   1.1734 B(  3-C ,  4-O ) :   2.1004
B(  3-C ,  5-C ) :   0.9032 B(  5-C ,  6-C ) :   1.7079 B(  5-C , 12-C ) :   0.9532
B(  6-C ,  7-C ) :   0.9485 B(  6-C ,  8-N ) :   1.1076 B(  7-C , 25-H ) :   0.9822
B(  7-C , 26-H ) :   0.9644 B(  7-C , 27-H ) :   0.9697 B(  8-N ,  9-C ) :   1.2053
B(  8-N , 28-H ) :   0.9532 B(  9-C , 10-S ) :   1.6053 B(  9-C , 11-N ) :   1.2833
B( 11-N , 12-C ) :   0.9909 B( 11-N , 29-H ) :   0.9454 B( 12-C , 13-C ) :   0.9499
B( 12-C , 30-H ) :   0.9974 B( 13-C , 14-C ) :   1.3892 B( 13-C , 19-C ) :   1.3352
B( 14-C , 15-C ) :   1.4005 B( 14-C , 31-H ) :   0.9638 B( 15-C , 16-C ) :   1.3596
B( 15-C , 32-H ) :   0.9694 B( 16-C , 17-C ) :   1.3308 B( 16-C , 33-H ) :   0.9841
B( 17-C , 18-O ) :   1.1105 B( 17-C , 19-C ) :   1.3663 B( 18-O , 34-H ) :   0.9789
B( 19-C , 35-H ) :   0.9565

MP2 TOTAL ENERGY:    -1274.328034588 Eh
FINAL SINGLE POINT ENERGY     -1274.328034587797

DIPOLE MOMENT
-------------
                                X             Y             Z
Electronic contribution:     10.60099       5.28562       7.74601
Nuclear contribution   :    -12.14070      -6.50878      -8.01108
                        -----------------------------------------
Total Dipole Moment    :     -1.53971      -1.22316      -0.26507
                        -----------------------------------------
Magnitude (a.u.)       :      1.98421
Magnitude (Debye)      :      5.04346

Rotational constants in cm-1:     0.011859     0.009198     0.006700
Rotational constants in MHz :   355.514422   275.759339   200.868383

                             ****ORCA TERMINATED NORMALLY****
TOTAL RUN TIME: 0 days 1 hours 44 minutes 34 seconds 237 msec
