                         Program Version 4.2.0 -  RELEASE  -
|  1> ! ri-mp2 cc-pvtz cc-pvtz/c TightSCF  NoKeepInts
|  2>
|  3> %scf
|  4>   MaxCore 4096
|  5> end
|  6> *xyz  0  1
|  7>     C       15.1803791   14.7302782   14.1933910
|  8>     C       15.2714486   14.5827819   15.7215924
|  9>     O       16.0909139   15.6637211   16.2058047
| 10>     C       17.1427806   15.4221078   17.0429208
| 11>     O       17.5305497   14.2947517   17.3031092
| 12>     C       17.7007473   16.6412953   17.7233261
| 13>     C       17.4368925   17.9286189   17.3730935
| 14>     C       16.5529991   18.4341754   16.2507886
| 15>     N       18.0739415   18.9756188   18.0481507
| 16>     C       19.0851741   18.8219843   18.9591664
| 17>     S       19.8780484   20.1197581   19.6094131
| 18>     N       19.4054290   17.5337258   19.3032735
| 19>     C       18.6417583   16.3396511   18.8961310
| 20>     C       17.8739877   15.7666302   20.0847984
| 21>     C       18.0363924   14.4186089   20.4544653
| 22>     C       17.3316992   13.8848753   21.5464722
| 23>     C       16.4558183   14.7056349   22.2770560
| 24>     C       16.2881571   16.0477931   21.9102435
| 25>     O       15.4386119   16.8414511   22.6101043
| 26>     C       16.9905885   16.5760469   20.8225613
| 27>     H       14.7470080   15.7009325   13.9222878
| 28>     H       14.5489246   13.9407087   13.7681089
| 29>     H       16.1761364   14.6546001   13.7387973
| 30>     H       14.2709326   14.6417246   16.1691226
| 31>     H       15.6956441   13.5981132   15.9599147
| 32>     H       16.8348285   17.9734765   15.2957462
| 33>     H       16.6180843   19.5205164   16.1152917
| 34>     H       15.5012672   18.1909226   16.4470008
| 35>     H       17.8529579   19.9290308   17.8093518
| 36>     H       20.1325576   17.4471861   20.0016174
| 37>     H       19.3657655   15.5839059   18.5586362
| 38>     H       18.7002332   13.7770556   19.8800128
| 39>     H       17.4617840   12.8387951   21.8177015
| 40>     H       15.9081701   14.2970015   23.1196536
| 41>     H       15.0779109   16.3101309   23.3355742
| 42>     H       16.8484781   17.6183905   20.5593206
| 43> *
| 44>
| 45>                          ****END OF INPUT****

CARTESIAN COORDINATES (ANGSTROEM)
---------------------------------
  C     15.180379   14.730278   14.193391
  C     15.271449   14.582782   15.721592
  O     16.090914   15.663721   16.205805
  C     17.142781   15.422108   17.042921
  O     17.530550   14.294752   17.303109
  C     17.700747   16.641295   17.723326
  C     17.436892   17.928619   17.373093
  C     16.552999   18.434175   16.250789
  N     18.073942   18.975619   18.048151
  C     19.085174   18.821984   18.959166
  S     19.878048   20.119758   19.609413
  N     19.405429   17.533726   19.303273
  C     18.641758   16.339651   18.896131
  C     17.873988   15.766630   20.084798
  C     18.036392   14.418609   20.454465
  C     17.331699   13.884875   21.546472
  C     16.455818   14.705635   22.277056
  C     16.288157   16.047793   21.910243
  O     15.438612   16.841451   22.610104
  C     16.990589   16.576047   20.822561
  H     14.747008   15.700933   13.922288
  H     14.548925   13.940709   13.768109
  H     16.176136   14.654600   13.738797
  H     14.270933   14.641725   16.169123
  H     15.695644   13.598113   15.959915
  H     16.834829   17.973477   15.295746
  H     16.618084   19.520516   16.115292
  H     15.501267   18.190923   16.447001
  H     17.852958   19.929031   17.809352
  H     20.132558   17.447186   20.001617
  H     19.365765   15.583906   18.558636
  H     18.700233   13.777056   19.880013
  H     17.461784   12.838795   21.817701
  H     15.908170   14.297002   23.119654
  H     15.077911   16.310131   23.335574
  H     16.848478   17.618391   20.559321

 Total Charge           Charge          ....    0
 Multiplicity           Mult            ....    1
 Number of Electrons    NEL             ....  154
 Basis Dimension        Dim             ....  828

ORBITAL ENERGIES
----------------

  NO   OCC          E(Eh)            E(eV)
   0   2.0000     -91.887944     -2500.3981
   1   2.0000     -20.604489      -560.6767
   2   2.0000     -20.590752      -560.3028
   3   2.0000     -20.544680      -559.0492
   4   2.0000     -15.628449      -425.2717
   5   2.0000     -15.606387      -424.6714
   6   2.0000     -11.396614      -310.1176
   7   2.0000     -11.382707      -309.7392
   8   2.0000     -11.336911      -308.4930
   9   2.0000     -11.306499      -307.6655
  10   2.0000     -11.304896      -307.6219
  11   2.0000     -11.298800      -307.4560
  12   2.0000     -11.260708      -306.4194
  13   2.0000     -11.258962      -306.3719
  14   2.0000     -11.252484      -306.1957
  15   2.0000     -11.246604      -306.0357
  16   2.0000     -11.236281      -305.7547
  17   2.0000     -11.233094      -305.6680
  18   2.0000     -11.232460      -305.6508
  19   2.0000     -11.229354      -305.5663
  20   2.0000      -8.893006      -241.9910
  21   2.0000      -6.574583      -178.9035
  22   2.0000      -6.572577      -178.8489
  23   2.0000      -6.571990      -178.8329
  24   2.0000      -1.453577       -39.5538
  25   2.0000      -1.410482       -38.3812
  26   2.0000      -1.357416       -36.9372
  27   2.0000      -1.339321       -36.4448
  28   2.0000      -1.236782       -33.6546
  29   2.0000      -1.151237       -31.3267
  30   2.0000      -1.119085       -30.4518
  31   2.0000      -1.044357       -28.4184
  32   2.0000      -1.036530       -28.2054
  33   2.0000      -1.008590       -27.4451
  34   2.0000      -0.997252       -27.1366
  35   2.0000      -0.982858       -26.7449
  36   2.0000      -0.920643       -25.0520
  37   2.0000      -0.890319       -24.2268
  38   2.0000      -0.847119       -23.0513
  39   2.0000      -0.834393       -22.7050
  40   2.0000      -0.826857       -22.4999
  41   2.0000      -0.817232       -22.2380
  42   2.0000      -0.761694       -20.7267
  43   2.0000      -0.735932       -20.0257
  44   2.0000      -0.724164       -19.7055
  45   2.0000      -0.689624       -18.7656
  46   2.0000      -0.684098       -18.6153
  47   2.0000      -0.679761       -18.4972
  48   2.0000      -0.674111       -18.3435
  49   2.0000      -0.652657       -17.7597
  50   2.0000      -0.651815       -17.7368
  51   2.0000      -0.642322       -17.4785
  52   2.0000      -0.632336       -17.2067
  53   2.0000      -0.607883       -16.5413
  54   2.0000      -0.600033       -16.3277
  55   2.0000      -0.598685       -16.2910
  56   2.0000      -0.594085       -16.1659
  57   2.0000      -0.582077       -15.8391
  58   2.0000      -0.572265       -15.5721
  59   2.0000      -0.563327       -15.3289
  60   2.0000      -0.561836       -15.2883
  61   2.0000      -0.544211       -14.8087
  62   2.0000      -0.542904       -14.7732
  63   2.0000      -0.529835       -14.4175
  64   2.0000      -0.516329       -14.0500
  65   2.0000      -0.508982       -13.8501
  66   2.0000      -0.499437       -13.5904
  67   2.0000      -0.494737       -13.4625
  68   2.0000      -0.481037       -13.0897
  69   2.0000      -0.462712       -12.5910
  70   2.0000      -0.460135       -12.5209
  71   2.0000      -0.453394       -12.3375
  72   2.0000      -0.354226        -9.6390
  73   2.0000      -0.343166        -9.3380
  74   2.0000      -0.327027        -8.8989
  75   2.0000      -0.315325        -8.5804
  76   2.0000      -0.312864        -8.5135
  77   0.0000       0.076057         2.0696
  78   0.0000       0.114292         3.1100
  79   0.0000       0.120948         3.2912
  80   0.0000       0.136236         3.7072
  81   0.0000       0.139355         3.7920

MULLIKEN ATOMIC CHARGES
-----------------------
   0 C :   -0.268715
   1 C :    0.017477
   2 O :   -0.342944
   3 C :    0.458010
   4 O :   -0.433379
   5 C :   -0.183290
   6 C :    0.142515
   7 C :   -0.286696
   8 N :   -0.120691
   9 C :    0.200876
  10 S :   -0.439184
  11 N :   -0.196481
  12 C :    0.032598
  13 C :    0.058642
  14 C :   -0.160164
  15 C :   -0.133869
  16 C :   -0.278678
  17 C :    0.311606
  18 O :   -0.359302
  19 C :   -0.272224
  20 H :    0.090453
  21 H :    0.096868
  22 H :    0.098192
  23 H :    0.099000
  24 H :    0.124597
  25 H :    0.126530
  26 H :    0.103338
  27 H :    0.128023
  28 H :    0.196662
  29 H :    0.193481
  30 H :    0.153516
  31 H :    0.152890
  32 H :    0.158625
  33 H :    0.127651
  34 H :    0.239947
  35 H :    0.164121
Sum of atomic charges:    0.0000000

LOEWDIN ATOMIC CHARGES
----------------------
   0 C :    0.103771
   1 C :   -0.010689
   2 O :    0.307929
   3 C :   -0.414339
   4 O :    0.101521
   5 C :   -0.090988
   6 C :   -0.064643
   7 C :    0.124665
   8 N :    0.404933
   9 C :   -0.459156
  10 S :   -0.035915
  11 N :    0.398015
  12 C :   -0.046707
  13 C :   -0.038731
  14 C :    0.022401
  15 C :    0.040955
  16 C :   -0.002280
  17 C :   -0.192533
  18 O :    0.392900
  19 C :    0.028393
  20 H :   -0.030247
  21 H :   -0.024759
  22 H :   -0.025867
  23 H :   -0.030093
  24 H :   -0.027187
  25 H :   -0.008930
  26 H :   -0.021190
  27 H :   -0.009673
  28 H :   -0.059267
  29 H :   -0.063589
  30 H :   -0.005182
  31 H :   -0.025378
  32 H :   -0.021343
  33 H :   -0.036503
  34 H :   -0.155008
  35 H :   -0.025287

  Mayer bond orders larger than 0.100000
B(  0-C ,  1-C ) :   0.9715 B(  0-C , 20-H ) :   0.9794 B(  0-C , 21-H ) :   0.9765
B(  0-C , 22-H ) :   0.9780 B(  1-C ,  2-O ) :   0.8826 B(  1-C , 23-H ) :   0.9811
B(  1-C , 24-H ) :   0.9737 B(  2-O ,  3-C ) :   1.1726 B(  3-C ,  4-O ) :   1.9776
B(  3-C ,  5-C ) :   1.0546 B(  5-C ,  6-C ) :   1.6429 B(  5-C , 12-C ) :   0.9662
B(  6-C ,  7-C ) :   0.9548 B(  6-C ,  8-N ) :   1.1520 B(  7-C , 25-H ) :   0.9655
B(  7-C , 26-H ) :   0.9920 B(  7-C , 27-H ) :   0.9638 B(  8-N ,  9-C ) :   1.1771
B(  8-N , 28-H ) :   0.9488 B(  9-C , 10-S ) :   1.6109 B(  9-C , 11-N ) :   1.3051
B( 11-N , 12-C ) :   0.9928 B( 11-N , 29-H ) :   0.9520 B( 12-C , 13-C ) :   0.9481
B( 12-C , 30-H ) :   1.0004 B( 13-C , 14-C ) :   1.3758 B( 13-C , 19-C ) :   1.3691
B( 14-C , 15-C ) :   1.3948 B( 14-C , 31-H ) :   0.9651 B( 15-C , 16-C ) :   1.3625
B( 15-C , 32-H ) :   0.9715 B( 16-C , 17-C ) :   1.3315 B( 16-C , 33-H ) :   0.9861
B( 17-C , 18-O ) :   1.1077 B( 17-C , 19-C ) :   1.3796 B( 18-O , 34-H ) :   0.9807
B( 19-C , 35-H ) :   0.9585

MP2 TOTAL ENERGY:    -1274.347795423 Eh
FINAL SINGLE POINT ENERGY     -1274.347795423063

DIPOLE MOMENT
-------------
                                X             Y             Z
Electronic contribution:     10.83874       8.20546      12.73152
Nuclear contribution   :    -12.52562      -9.33264     -13.66414
                        -----------------------------------------
Total Dipole Moment    :     -1.68688      -1.12718      -0.93263
                        -----------------------------------------
Magnitude (a.u.)       :      2.23291
Magnitude (Debye)      :      5.67560

Rotational constants in cm-1:     0.010527     0.008597     0.005663
Rotational constants in MHz :   315.605628   257.722316   169.766056

                             ****ORCA TERMINATED NORMALLY****
TOTAL RUN TIME: 0 days 1 hours 35 minutes 21 seconds 930 msec
