                         Program Version 4.2.0 -  RELEASE  -
|  1> ! ri-mp2 cc-pvtz cc-pvtz/c TightSCF  NoKeepInts
|  2>
|  3> %scf
|  4>   MaxCore 4096
|  5> end
|  6> *xyz  0  1
|  7>     C       14.8839903   14.5313177   17.3672005
|  8>     C       15.5425182   15.6064589   16.4872609
|  9>     O       16.8567851   15.1187595   16.1473905
| 10>     C       18.0615006   15.6938086   16.4759181
| 11>     O       19.0723427   15.0199927   16.4025594
| 12>     C       18.0242784   16.8892735   17.3710940
| 13>     C       17.5420640   18.0862562   16.9631434
| 14>     C       16.9742553   18.4209770   15.5999552
| 15>     N       17.6111778   19.1915858   17.8136492
| 16>     C       18.2559250   19.2031734   19.0233708
| 17>     S       18.3534060   20.5750420   19.9411583
| 18>     N       18.8145672   18.0180872   19.4363394
| 19>     C       18.6788626   16.7219370   18.7411452
| 20>     C       17.9059932   15.7135036   19.5854547
| 21>     C       18.3348398   14.3752115   19.6508844
| 22>     C       17.6259901   13.4320602   20.4134050
| 23>     C       16.4753808   13.8286863   21.1158116
| 24>     C       16.0393809   15.1586603   21.0465552
| 25>     O       14.9194213   15.5412531   21.7096585
| 26>     C       16.7454951   16.0952779   20.2848009
| 27>     H       15.4860634   14.3408034   18.2633223
| 28>     H       14.7869903   13.5879954   16.8154031
| 29>     H       13.8839184   14.8490357   17.6858697
| 30>     H       14.9496550   15.7517263   15.5749909
| 31>     H       15.5535622   16.5454859   17.0479849
| 32>     H       17.1355860   17.6165821   14.8717148
| 33>     H       17.4541812   19.3176094   15.1869407
| 34>     H       15.8957450   18.6125883   15.6564200
| 35>     H       17.2232261   20.0750507   17.5217400
| 36>     H       19.2674932   18.0520428   20.3410097
| 37>     H       19.6915727   16.3234921   18.5795351
| 38>     H       19.2159552   14.0618826   19.0944804
| 39>     H       17.9670974   12.3988413   20.4519717
| 40>     H       15.9239124   13.1023071   21.7036181
| 41>     H       14.6077373   14.7771887   22.2181048
| 42>     H       16.3861304   17.1180460   20.2441386
| 43> *
| 44>
| 45>                          ****END OF INPUT****

CARTESIAN COORDINATES (ANGSTROEM)
---------------------------------
  C     14.883990   14.531318   17.367200
  C     15.542518   15.606459   16.487261
  O     16.856785   15.118759   16.147391
  C     18.061501   15.693809   16.475918
  O     19.072343   15.019993   16.402559
  C     18.024278   16.889274   17.371094
  C     17.542064   18.086256   16.963143
  C     16.974255   18.420977   15.599955
  N     17.611178   19.191586   17.813649
  C     18.255925   19.203173   19.023371
  S     18.353406   20.575042   19.941158
  N     18.814567   18.018087   19.436339
  C     18.678863   16.721937   18.741145
  C     17.905993   15.713504   19.585455
  C     18.334840   14.375211   19.650884
  C     17.625990   13.432060   20.413405
  C     16.475381   13.828686   21.115812
  C     16.039381   15.158660   21.046555
  O     14.919421   15.541253   21.709658
  C     16.745495   16.095278   20.284801
  H     15.486063   14.340803   18.263322
  H     14.786990   13.587995   16.815403
  H     13.883918   14.849036   17.685870
  H     14.949655   15.751726   15.574991
  H     15.553562   16.545486   17.047985
  H     17.135586   17.616582   14.871715
  H     17.454181   19.317609   15.186941
  H     15.895745   18.612588   15.656420
  H     17.223226   20.075051   17.521740
  H     19.267493   18.052043   20.341010
  H     19.691573   16.323492   18.579535
  H     19.215955   14.061883   19.094480
  H     17.967097   12.398841   20.451972
  H     15.923912   13.102307   21.703618
  H     14.607737   14.777189   22.218105
  H     16.386130   17.118046   20.244139

 Total Charge           Charge          ....    0
 Multiplicity           Mult            ....    1
 Number of Electrons    NEL             ....  154
 Basis Dimension        Dim             ....  828

ORBITAL ENERGIES
----------------

  NO   OCC          E(Eh)            E(eV)
   0   2.0000     -91.890564     -2500.4694
   1   2.0000     -20.602053      -560.6104
   2   2.0000     -20.599815      -560.5495
   3   2.0000     -20.548668      -559.1577
   4   2.0000     -15.627931      -425.2576
   5   2.0000     -15.611986      -424.8237
   6   2.0000     -11.398827      -310.1779
   7   2.0000     -11.387298      -309.8641
   8   2.0000     -11.330458      -308.3174
   9   2.0000     -11.316768      -307.9449
  10   2.0000     -11.315031      -307.8977
  11   2.0000     -11.304349      -307.6070
  12   2.0000     -11.270725      -306.6920
  13   2.0000     -11.265887      -306.5604
  14   2.0000     -11.263896      -306.5062
  15   2.0000     -11.257093      -306.3211
  16   2.0000     -11.246084      -306.0215
  17   2.0000     -11.242286      -305.9181
  18   2.0000     -11.239342      -305.8380
  19   2.0000     -11.226029      -305.4758
  20   2.0000      -8.895671      -242.0635
  21   2.0000      -6.577258      -178.9763
  22   2.0000      -6.575233      -178.9212
  23   2.0000      -6.574656      -178.9055
  24   2.0000      -1.447527       -39.3892
  25   2.0000      -1.419595       -38.6291
  26   2.0000      -1.358634       -36.9703
  27   2.0000      -1.341114       -36.4936
  28   2.0000      -1.240591       -33.7582
  29   2.0000      -1.161592       -31.6085
  30   2.0000      -1.126474       -30.6529
  31   2.0000      -1.049530       -28.5592
  32   2.0000      -1.038122       -28.2487
  33   2.0000      -1.019095       -27.7310
  34   2.0000      -1.005924       -27.3726
  35   2.0000      -0.990084       -26.9415
  36   2.0000      -0.928467       -25.2649
  37   2.0000      -0.884423       -24.0664
  38   2.0000      -0.855443       -23.2778
  39   2.0000      -0.842209       -22.9177
  40   2.0000      -0.837090       -22.7784
  41   2.0000      -0.835384       -22.7319
  42   2.0000      -0.755403       -20.5556
  43   2.0000      -0.740881       -20.1604
  44   2.0000      -0.731489       -19.9048
  45   2.0000      -0.697970       -18.9927
  46   2.0000      -0.689227       -18.7548
  47   2.0000      -0.681792       -18.5525
  48   2.0000      -0.676972       -18.4214
  49   2.0000      -0.661528       -18.0011
  50   2.0000      -0.655416       -17.8348
  51   2.0000      -0.644724       -17.5438
  52   2.0000      -0.640085       -17.4176
  53   2.0000      -0.614002       -16.7079
  54   2.0000      -0.608436       -16.5564
  55   2.0000      -0.608194       -16.5498
  56   2.0000      -0.602064       -16.3830
  57   2.0000      -0.586173       -15.9506
  58   2.0000      -0.578764       -15.7490
  59   2.0000      -0.568867       -15.4796
  60   2.0000      -0.561445       -15.2777
  61   2.0000      -0.555965       -15.1286
  62   2.0000      -0.546047       -14.8587
  63   2.0000      -0.531256       -14.4562
  64   2.0000      -0.519600       -14.1390
  65   2.0000      -0.513882       -13.9834
  66   2.0000      -0.503441       -13.6993
  67   2.0000      -0.502121       -13.6634
  68   2.0000      -0.486747       -13.2451
  69   2.0000      -0.471067       -12.8184
  70   2.0000      -0.451936       -12.2978
  71   2.0000      -0.449399       -12.2288
  72   2.0000      -0.357930        -9.7398
  73   2.0000      -0.352498        -9.5920
  74   2.0000      -0.330183        -8.9847
  75   2.0000      -0.324832        -8.8391
  76   2.0000      -0.318968        -8.6796
  77   0.0000       0.084524         2.3000
  78   0.0000       0.104513         2.8440
  79   0.0000       0.111360         3.0302
  80   0.0000       0.128117         3.4862
  81   0.0000       0.132720         3.6115

MULLIKEN ATOMIC CHARGES
-----------------------
   0 C :   -0.263145
   1 C :    0.015980
   2 O :   -0.312698
   3 C :    0.397160
   4 O :   -0.384644
   5 C :   -0.179125
   6 C :    0.127694
   7 C :   -0.322155
   8 N :   -0.136476
   9 C :    0.202940
  10 S :   -0.439913
  11 N :   -0.214454
  12 C :    0.066175
  13 C :    0.015701
  14 C :   -0.195796
  15 C :   -0.130517
  16 C :   -0.275581
  17 C :    0.307752
  18 O :   -0.360013
  19 C :   -0.256422
  20 H :    0.109344
  21 H :    0.106432
  22 H :    0.089409
  23 H :    0.110723
  24 H :    0.091533
  25 H :    0.125925
  26 H :    0.137446
  27 H :    0.122582
  28 H :    0.196822
  29 H :    0.198779
  30 H :    0.165927
  31 H :    0.169920
  32 H :    0.163568
  33 H :    0.132158
  34 H :    0.241624
  35 H :    0.175346
Sum of atomic charges:    0.0000000

LOEWDIN ATOMIC CHARGES
----------------------
   0 C :    0.109561
   1 C :   -0.021736
   2 O :    0.311749
   3 C :   -0.417660
   4 O :    0.121903
   5 C :   -0.082584
   6 C :   -0.103881
   7 C :    0.125465
   8 N :    0.401340
   9 C :   -0.456537
  10 S :   -0.037091
  11 N :    0.397643
  12 C :   -0.043875
  13 C :   -0.043583
  14 C :    0.021980
  15 C :    0.045179
  16 C :   -0.000988
  17 C :   -0.193457
  18 O :    0.395602
  19 C :    0.026503
  20 H :   -0.023216
  21 H :   -0.025743
  22 H :   -0.026632
  23 H :   -0.030552
  24 H :   -0.040331
  25 H :   -0.007634
  26 H :   -0.009746
  27 H :   -0.016419
  28 H :   -0.057784
  29 H :   -0.063469
  30 H :   -0.001999
  31 H :   -0.021513
  32 H :   -0.018329
  33 H :   -0.034729
  34 H :   -0.152915
  35 H :   -0.024522

  Mayer bond orders larger than 0.100000
B(  0-C ,  1-C ) :   0.9783 B(  0-C , 20-H ) :   0.9699 B(  0-C , 21-H ) :   0.9818
B(  0-C , 22-H ) :   0.9751 B(  1-C ,  2-O ) :   0.9085 B(  1-C , 23-H ) :   0.9795
B(  1-C , 24-H ) :   0.9618 B(  2-O ,  3-C ) :   1.1842 B(  3-C ,  4-O ) :   2.0873
B(  3-C ,  5-C ) :   0.9259 B(  5-C ,  6-C ) :   1.6886 B(  5-C , 12-C ) :   0.9584
B(  6-C ,  7-C ) :   0.9476 B(  6-C ,  8-N ) :   1.1125 B(  7-C , 25-H ) :   0.9795
B(  7-C , 26-H ) :   0.9721 B(  7-C , 27-H ) :   0.9651 B(  8-N ,  9-C ) :   1.1937
B(  8-N , 28-H ) :   0.9519 B(  9-C , 10-S ) :   1.6119 B(  9-C , 11-N ) :   1.2883
B( 11-N , 12-C ) :   0.9961 B( 11-N , 29-H ) :   0.9490 B( 12-C , 13-C ) :   0.9451
B( 12-C , 30-H ) :   0.9960 B( 13-C , 14-C ) :   1.3894 B( 13-C , 19-C ) :   1.3532
B( 14-C , 15-C ) :   1.3953 B( 14-C , 31-H ) :   0.9602 B( 15-C , 16-C ) :   1.3601
B( 15-C , 32-H ) :   0.9708 B( 16-C , 17-C ) :   1.3312 B( 16-C , 33-H ) :   0.9853
B( 17-C , 18-O ) :   1.1086 B( 17-C , 19-C ) :   1.3704 B( 18-O , 34-H ) :   0.9791
B( 19-C , 35-H ) :   0.9561

MP2 TOTAL ENERGY:    -1274.333209673 Eh
FINAL SINGLE POINT ENERGY     -1274.333209673489

DIPOLE MOMENT
-------------
                                X             Y             Z
Electronic contribution:     10.06764       7.97447       6.00812
Nuclear contribution   :    -11.61634      -8.90583      -6.49383
                        -----------------------------------------
Total Dipole Moment    :     -1.54871      -0.93136      -0.48570
                        -----------------------------------------
Magnitude (a.u.)       :      1.87132
Magnitude (Debye)      :      4.75651

Rotational constants in cm-1:     0.012244     0.009233     0.006839
Rotational constants in MHz :   367.054401   276.797031   205.030535

                             ****ORCA TERMINATED NORMALLY****
TOTAL RUN TIME: 0 days 1 hours 47 minutes 55 seconds 709 msec
