                         Program Version 4.2.0 -  RELEASE  -
|  1> ! ri-mp2 cc-pvtz cc-pvtz/c TightSCF  NoKeepInts
|  2>
|  3> %scf
|  4>   MaxCore 4096
|  5> end
|  6> *xyz  0  1
|  7>     C       15.1264352   15.2718734   17.5444305
|  8>     C       15.5666955   15.4263850   16.0769244
|  9>     O       16.9547972   15.0630951   15.9020036
| 10>     C       18.0734415   15.6148455   16.4849308
| 11>     O       19.1044846   14.9681928   16.5063939
| 12>     C       17.9142427   16.8110653   17.3704522
| 13>     C       17.4140770   17.9922462   16.9335369
| 14>     C       16.9893427   18.3497561   15.5248325
| 15>     N       17.3978572   19.1004129   17.7834196
| 16>     C       18.0050905   19.1527552   19.0100975
| 17>     S       18.0137269   20.5352263   19.9170553
| 18>     N       18.6139144   18.0019774   19.4438880
| 19>     C       18.5478385   16.6930815   18.7635594
| 20>     C       17.8519901   15.6451094   19.6318770
| 21>     C       18.2915978   14.3082461   19.6048765
| 22>     C       17.6608208   13.3274623   20.3878725
| 23>     C       16.5799878   13.6840013   21.2112236
| 24>     C       16.1397597   15.0135035   21.2463845
| 25>     O       15.0909840   15.3601994   22.0340130
| 26>     C       16.7698613   15.9883252   20.4661850
| 27>     H       15.5855354   14.3864554   18.0031401
| 28>     H       14.0374453   15.1564634   17.6038238
| 29>     H       15.3910230   16.1562975   18.1323563
| 30>     H       14.9663215   14.7366714   15.4693812
| 31>     H       15.3445794   16.4337527   15.7181129
| 32>     H       17.1832154   17.5411487   14.8096722
| 33>     H       17.5515071   19.2206159   15.1633331
| 34>     H       15.9229214   18.6022758   15.4805554
| 35>     H       16.9811470   19.9637116   17.4718739
| 36>     H       19.0464575   18.0655471   20.3569199
| 37>     H       19.5845889   16.3543275   18.6187774
| 38>     H       19.1234373   14.0245474   18.9634222
| 39>     H       18.0097504   12.2968083   20.3507629
| 40>     H       16.0885769   12.9288409   21.8157502
| 41>     H       14.8207224   14.5683787   22.5230971
| 42>     H       16.4028256   17.0083976   20.5090645
| 43> *
| 44>
| 45>                          ****END OF INPUT****

CARTESIAN COORDINATES (ANGSTROEM)
---------------------------------
  C     15.126435   15.271873   17.544430
  C     15.566695   15.426385   16.076924
  O     16.954797   15.063095   15.902004
  C     18.073442   15.614845   16.484931
  O     19.104485   14.968193   16.506394
  C     17.914243   16.811065   17.370452
  C     17.414077   17.992246   16.933537
  C     16.989343   18.349756   15.524833
  N     17.397857   19.100413   17.783420
  C     18.005091   19.152755   19.010097
  S     18.013727   20.535226   19.917055
  N     18.613914   18.001977   19.443888
  C     18.547838   16.693082   18.763559
  C     17.851990   15.645109   19.631877
  C     18.291598   14.308246   19.604876
  C     17.660821   13.327462   20.387872
  C     16.579988   13.684001   21.211224
  C     16.139760   15.013504   21.246385
  O     15.090984   15.360199   22.034013
  C     16.769861   15.988325   20.466185
  H     15.585535   14.386455   18.003140
  H     14.037445   15.156463   17.603824
  H     15.391023   16.156298   18.132356
  H     14.966321   14.736671   15.469381
  H     15.344579   16.433753   15.718113
  H     17.183215   17.541149   14.809672
  H     17.551507   19.220616   15.163333
  H     15.922921   18.602276   15.480555
  H     16.981147   19.963712   17.471874
  H     19.046457   18.065547   20.356920
  H     19.584589   16.354328   18.618777
  H     19.123437   14.024547   18.963422
  H     18.009750   12.296808   20.350763
  H     16.088577   12.928841   21.815750
  H     14.820722   14.568379   22.523097
  H     16.402826   17.008398   20.509064

 Total Charge           Charge          ....    0
 Multiplicity           Mult            ....    1
 Number of Electrons    NEL             ....  154
 Basis Dimension        Dim             ....  828

ORBITAL ENERGIES
----------------

  NO   OCC          E(Eh)            E(eV)
   0   2.0000     -91.890884     -2500.4781
   1   2.0000     -20.600172      -560.5592
   2   2.0000     -20.597468      -560.4856
   3   2.0000     -20.548870      -559.1632
   4   2.0000     -15.628605      -425.2759
   5   2.0000     -15.611550      -424.8119
   6   2.0000     -11.401007      -310.2372
   7   2.0000     -11.387253      -309.8629
   8   2.0000     -11.333530      -308.4010
   9   2.0000     -11.314540      -307.8843
  10   2.0000     -11.314066      -307.8714
  11   2.0000     -11.308155      -307.7105
  12   2.0000     -11.271249      -306.7063
  13   2.0000     -11.268776      -306.6390
  14   2.0000     -11.261902      -306.4519
  15   2.0000     -11.254413      -306.2481
  16   2.0000     -11.243777      -305.9587
  17   2.0000     -11.239366      -305.8387
  18   2.0000     -11.235885      -305.7440
  19   2.0000     -11.228014      -305.5298
  20   2.0000      -8.895989      -242.0722
  21   2.0000      -6.577577      -178.9850
  22   2.0000      -6.575550      -178.9298
  23   2.0000      -6.574973      -178.9141
  24   2.0000      -1.445576       -39.3361
  25   2.0000      -1.417287       -38.5664
  26   2.0000      -1.358029       -36.9538
  27   2.0000      -1.342125       -36.5211
  28   2.0000      -1.241090       -33.7718
  29   2.0000      -1.158849       -31.5339
  30   2.0000      -1.125517       -30.6269
  31   2.0000      -1.047776       -28.5114
  32   2.0000      -1.038388       -28.2560
  33   2.0000      -1.017350       -27.6835
  34   2.0000      -1.006144       -27.3786
  35   2.0000      -0.990368       -26.9493
  36   2.0000      -0.928163       -25.2566
  37   2.0000      -0.896105       -24.3843
  38   2.0000      -0.855709       -23.2850
  39   2.0000      -0.840993       -22.8846
  40   2.0000      -0.834292       -22.7022
  41   2.0000      -0.830254       -22.5924
  42   2.0000      -0.747495       -20.3404
  43   2.0000      -0.740729       -20.1563
  44   2.0000      -0.730431       -19.8760
  45   2.0000      -0.695407       -18.9230
  46   2.0000      -0.687395       -18.7050
  47   2.0000      -0.680025       -18.5044
  48   2.0000      -0.675568       -18.3831
  49   2.0000      -0.662343       -18.0233
  50   2.0000      -0.653183       -17.7740
  51   2.0000      -0.648763       -17.6537
  52   2.0000      -0.639478       -17.4011
  53   2.0000      -0.620809       -16.8931
  54   2.0000      -0.610970       -16.6253
  55   2.0000      -0.605868       -16.4865
  56   2.0000      -0.601660       -16.3720
  57   2.0000      -0.590058       -16.0563
  58   2.0000      -0.577706       -15.7202
  59   2.0000      -0.569363       -15.4932
  60   2.0000      -0.565987       -15.4013
  61   2.0000      -0.554605       -15.0916
  62   2.0000      -0.538443       -14.6518
  63   2.0000      -0.534494       -14.5443
  64   2.0000      -0.519776       -14.1438
  65   2.0000      -0.512898       -13.9567
  66   2.0000      -0.501870       -13.6566
  67   2.0000      -0.501166       -13.6374
  68   2.0000      -0.482745       -13.1362
  69   2.0000      -0.467138       -12.7115
  70   2.0000      -0.455352       -12.3907
  71   2.0000      -0.450443       -12.2572
  72   2.0000      -0.358692        -9.7605
  73   2.0000      -0.348151        -9.4737
  74   2.0000      -0.330465        -8.9924
  75   2.0000      -0.322982        -8.7888
  76   2.0000      -0.319572        -8.6960
  77   0.0000       0.082266         2.2386
  78   0.0000       0.107482         2.9247
  79   0.0000       0.112788         3.0691
  80   0.0000       0.130183         3.5425
  81   0.0000       0.131111         3.5677

MULLIKEN ATOMIC CHARGES
-----------------------
   0 C :   -0.325712
   1 C :    0.019673
   2 O :   -0.322362
   3 C :    0.424716
   4 O :   -0.386627
   5 C :   -0.238536
   6 C :    0.167613
   7 C :   -0.332730
   8 N :   -0.138445
   9 C :    0.203095
  10 S :   -0.440077
  11 N :   -0.227013
  12 C :    0.095618
  13 C :    0.017672
  14 C :   -0.216188
  15 C :   -0.136633
  16 C :   -0.277665
  17 C :    0.323962
  18 O :   -0.358121
  19 C :   -0.273243
  20 H :    0.128108
  21 H :    0.113921
  22 H :    0.107426
  23 H :    0.130374
  24 H :    0.087688
  25 H :    0.129088
  26 H :    0.142725
  27 H :    0.119959
  28 H :    0.196508
  29 H :    0.202953
  30 H :    0.167206
  31 H :    0.177858
  32 H :    0.164342
  33 H :    0.131842
  34 H :    0.241020
  35 H :    0.179986
Sum of atomic charges:   -0.0000000

LOEWDIN ATOMIC CHARGES
----------------------
   0 C :    0.104177
   1 C :   -0.020551
   2 O :    0.299693
   3 C :   -0.413743
   4 O :    0.121964
   5 C :   -0.078634
   6 C :   -0.097291
   7 C :    0.121362
   8 N :    0.402491
   9 C :   -0.458491
  10 S :   -0.036956
  11 N :    0.398303
  12 C :   -0.042112
  13 C :   -0.042116
  14 C :    0.020051
  15 C :    0.042764
  16 C :   -0.001545
  17 C :   -0.192968
  18 O :    0.395326
  19 C :    0.028250
  20 H :   -0.017926
  21 H :   -0.025234
  22 H :   -0.035448
  23 H :   -0.018769
  24 H :   -0.039900
  25 H :   -0.008108
  26 H :   -0.008235
  27 H :   -0.018771
  28 H :   -0.057241
  29 H :   -0.063121
  30 H :   -0.001846
  31 H :   -0.022193
  32 H :   -0.018710
  33 H :   -0.035013
  34 H :   -0.153534
  35 H :   -0.025925

  Mayer bond orders larger than 0.100000
B(  0-C ,  1-C ) :   0.9536 B(  0-C , 20-H ) :   0.9677 B(  0-C , 21-H ) :   0.9771
B(  0-C , 22-H ) :   0.9725 B(  1-C ,  2-O ) :   0.9045 B(  1-C , 23-H ) :   0.9840
B(  1-C , 24-H ) :   0.9732 B(  2-O ,  3-C ) :   1.1844 B(  3-C ,  4-O ) :   2.0776
B(  3-C ,  5-C ) :   0.9287 B(  5-C ,  6-C ) :   1.6869 B(  5-C , 12-C ) :   0.9457
B(  6-C ,  7-C ) :   0.9442 B(  6-C ,  8-N ) :   1.1108 B(  7-C , 25-H ) :   0.9801
B(  7-C , 26-H ) :   0.9680 B(  7-C , 27-H ) :   0.9670 B(  8-N ,  9-C ) :   1.1955
B(  8-N , 28-H ) :   0.9524 B(  9-C , 10-S ) :   1.6090 B(  9-C , 11-N ) :   1.2898
B( 11-N , 12-C ) :   0.9879 B( 11-N , 29-H ) :   0.9476 B( 12-C , 13-C ) :   0.9545
B( 12-C , 30-H ) :   0.9945 B( 13-C , 14-C ) :   1.3903 B( 13-C , 19-C ) :   1.3360
B( 14-C , 15-C ) :   1.4018 B( 14-C , 31-H ) :   0.9570 B( 15-C , 16-C ) :   1.3578
B( 15-C , 32-H ) :   0.9701 B( 16-C , 17-C ) :   1.3317 B( 16-C , 33-H ) :   0.9848
B( 17-C , 18-O ) :   1.1089 B( 17-C , 19-C ) :   1.3661 B( 18-O , 34-H ) :   0.9796
B( 19-C , 35-H ) :   0.9568

MP2 TOTAL ENERGY:    -1274.330443966 Eh
FINAL SINGLE POINT ENERGY     -1274.330443966357

DIPOLE MOMENT
-------------
                                X             Y             Z
Electronic contribution:      8.85531       6.45784       6.23150
Nuclear contribution   :    -10.35407      -7.42417      -6.90277
                        -----------------------------------------
Total Dipole Moment    :     -1.49876      -0.96633      -0.67126
                        -----------------------------------------
Magnitude (a.u.)       :      1.90543
Magnitude (Debye)      :      4.84322

Rotational constants in cm-1:     0.011823     0.009566     0.006742
Rotational constants in MHz :   354.445763   286.777735   202.109348

                             ****ORCA TERMINATED NORMALLY****
TOTAL RUN TIME: 0 days 1 hours 50 minutes 39 seconds 126 msec
