                         Program Version 5.0.0 -  RELEASE  -
|  1> ! ri-mp2 cc-pvtz cc-pvtz/c TightSCF NoKeepInts
|  2>
|  3> %scf
|  4>   MaxCore 4096
|  5> end
|  6> *xyz  0  1
|  7>     C       15.5302770   13.6634311   15.9860559
|  8>     C       15.1902423   15.1684125   15.9455098
|  9>     O       16.3427113   16.0464953   15.8993215
| 10>     C       17.4946923   15.8594212   16.6155818
| 11>     O       18.0484523   14.7798852   16.7334476
| 12>     C       17.8314632   17.0161432   17.5119721
| 13>     C       17.4382850   18.2998936   17.3039234
| 14>     C       16.6316038   18.8510399   16.1459602
| 15>     N       17.8502835   19.3041180   18.1860938
| 16>     C       18.7553536   19.1344687   19.2003082
| 17>     S       19.2762348   20.4033605   20.1244930
| 18>     N       19.2064273   17.8560907   19.4098144
| 19>     C       18.6816324   16.6541840   18.7348142
| 20>     C       17.8850835   15.7948486   19.7134303
| 21>     C       18.2030138   14.4356019   19.8904850
| 22>     C       17.4666968   13.6374737   20.7818930
| 23>     C       16.4016044   14.2023636   21.5037332
| 24>     C       16.0787809   15.5546607   21.3273873
| 25>     O       15.0458152   16.1012395   22.0169559
| 26>     C       16.8129973   16.3463374   20.4387637
| 27>     H       16.2534038   13.4040859   15.2024592
| 28>     H       14.6258727   13.0647549   15.8249697
| 29>     H       15.9467617   13.3761269   16.9598516
| 30>     H       14.5615599   15.3697046   15.0686749
| 31>     H       14.5946412   15.4081763   16.8361118
| 32>     H       15.5765836   18.5650676   16.2375051
| 33>     H       17.0053603   18.4632288   15.1899515
| 34>     H       16.6751970   19.9452667   16.0845956
| 35>     H       17.5317729   20.2499381   18.0482611
| 36>     H       19.8502113   17.7525880   20.1836253
| 37>     H       19.5430163   16.0680606   18.3828893
| 38>     H       19.0145390   13.9918038   19.3186857
| 39>     H       17.7196505   12.5859005   20.9047779
| 40>     H       15.8292240   13.5890627   22.1916312
| 41>     H       14.6996001   15.4175102   22.6098897
| 42>     H       16.5479549   17.3912552   20.3201762
| 43> *
| 44>
| 45>                          ****END OF INPUT****

CARTESIAN COORDINATES (ANGSTROEM)
---------------------------------
  C     15.530277   13.663431   15.986056
  C     15.190242   15.168413   15.945510
  O     16.342711   16.046495   15.899321
  C     17.494692   15.859421   16.615582
  O     18.048452   14.779885   16.733448
  C     17.831463   17.016143   17.511972
  C     17.438285   18.299894   17.303923
  C     16.631604   18.851040   16.145960
  N     17.850283   19.304118   18.186094
  C     18.755354   19.134469   19.200308
  S     19.276235   20.403361   20.124493
  N     19.206427   17.856091   19.409814
  C     18.681632   16.654184   18.734814
  C     17.885084   15.794849   19.713430
  C     18.203014   14.435602   19.890485
  C     17.466697   13.637474   20.781893
  C     16.401604   14.202364   21.503733
  C     16.078781   15.554661   21.327387
  O     15.045815   16.101239   22.016956
  C     16.812997   16.346337   20.438764
  H     16.253404   13.404086   15.202459
  H     14.625873   13.064755   15.824970
  H     15.946762   13.376127   16.959852
  H     14.561560   15.369705   15.068675
  H     14.594641   15.408176   16.836112
  H     15.576584   18.565068   16.237505
  H     17.005360   18.463229   15.189951
  H     16.675197   19.945267   16.084596
  H     17.531773   20.249938   18.048261
  H     19.850211   17.752588   20.183625
  H     19.543016   16.068061   18.382889
  H     19.014539   13.991804   19.318686
  H     17.719651   12.585900   20.904778
  H     15.829224   13.589063   22.191631
  H     14.699600   15.417510   22.609890
  H     16.547955   17.391255   20.320176

 Total Charge           Charge          ....    0
 Multiplicity           Mult            ....    1
 Number of Electrons    NEL             ....  154
 Basis Dimension        Dim             ....  828

ORBITAL ENERGIES
----------------

  NO   OCC          E(Eh)            E(eV)
   0   2.0000     -91.888046     -2500.4009
   1   2.0000     -20.593822      -560.3864
   2   2.0000     -20.591456      -560.3220
   3   2.0000     -20.549591      -559.1828
   4   2.0000     -15.627875      -425.2561
   5   2.0000     -15.607016      -424.6885
   6   2.0000     -11.397618      -310.1450
   7   2.0000     -11.383091      -309.7496
   8   2.0000     -11.334582      -308.4296
   9   2.0000     -11.309855      -307.7568
  10   2.0000     -11.306291      -307.6598
  11   2.0000     -11.306176      -307.6567
  12   2.0000     -11.259169      -306.3776
  13   2.0000     -11.258665      -306.3639
  14   2.0000     -11.255504      -306.2778
  15   2.0000     -11.250049      -306.1294
  16   2.0000     -11.239615      -305.8455
  17   2.0000     -11.235607      -305.7364
  18   2.0000     -11.232644      -305.6558
  19   2.0000     -11.222421      -305.3776
  20   2.0000      -8.893119      -241.9941
  21   2.0000      -6.574698      -178.9066
  22   2.0000      -6.572689      -178.8520
  23   2.0000      -6.572105      -178.8361
  24   2.0000      -1.445845       -39.3435
  25   2.0000      -1.413576       -38.4654
  26   2.0000      -1.357102       -36.9286
  27   2.0000      -1.339018       -36.4365
  28   2.0000      -1.236965       -33.6595
  29   2.0000      -1.153986       -31.4016
  30   2.0000      -1.119418       -30.4609
  31   2.0000      -1.042543       -28.3690
  32   2.0000      -1.033167       -28.1139
  33   2.0000      -1.011540       -27.5254
  34   2.0000      -0.997714       -27.1492
  35   2.0000      -0.982935       -26.7470
  36   2.0000      -0.922124       -25.0923
  37   2.0000      -0.892931       -24.2979
  38   2.0000      -0.848332       -23.0843
  39   2.0000      -0.837175       -22.7807
  40   2.0000      -0.830100       -22.5882
  41   2.0000      -0.820858       -22.3367
  42   2.0000      -0.744157       -20.2495
  43   2.0000      -0.727028       -19.7834
  44   2.0000      -0.725877       -19.7521
  45   2.0000      -0.692063       -18.8320
  46   2.0000      -0.684433       -18.6244
  47   2.0000      -0.679306       -18.4849
  48   2.0000      -0.672595       -18.3023
  49   2.0000      -0.666147       -18.1268
  50   2.0000      -0.646504       -17.5923
  51   2.0000      -0.644342       -17.5334
  52   2.0000      -0.635234       -17.2856
  53   2.0000      -0.606197       -16.4955
  54   2.0000      -0.602022       -16.3819
  55   2.0000      -0.600624       -16.3438
  56   2.0000      -0.597342       -16.2545
  57   2.0000      -0.576370       -15.6838
  58   2.0000      -0.573554       -15.6072
  59   2.0000      -0.571630       -15.5549
  60   2.0000      -0.559115       -15.2143
  61   2.0000      -0.545859       -14.8536
  62   2.0000      -0.536522       -14.5995
  63   2.0000      -0.524641       -14.2762
  64   2.0000      -0.518445       -14.1076
  65   2.0000      -0.510894       -13.9021
  66   2.0000      -0.498833       -13.5739
  67   2.0000      -0.494437       -13.4543
  68   2.0000      -0.479794       -13.0558
  69   2.0000      -0.463038       -12.5999
  70   2.0000      -0.455868       -12.4048
  71   2.0000      -0.446307       -12.1446
  72   2.0000      -0.353594        -9.6218
  73   2.0000      -0.345886        -9.4120
  74   2.0000      -0.327302        -8.9064
  75   2.0000      -0.317037        -8.6270
  76   2.0000      -0.314923        -8.5695
  77   0.0000       0.074293         2.0216
  78   0.0000       0.108326         2.9477
  79   0.0000       0.121019         3.2931
  80   0.0000       0.134209         3.6520
  81   0.0000       0.138738         3.7753

MULLIKEN ATOMIC CHARGES
-----------------------
   0 C :   -0.281094
   1 C :    0.045436
   2 O :   -0.377895
   3 C :    0.450370
   4 O :   -0.410057
   5 C :   -0.172796
   6 C :    0.144827
   7 C :   -0.284219
   8 N :   -0.123679
   9 C :    0.201588
  10 S :   -0.440211
  11 N :   -0.200292
  12 C :    0.046454
  13 C :    0.052054
  14 C :   -0.169000
  15 C :   -0.134244
  16 C :   -0.279990
  17 C :    0.311968
  18 O :   -0.358695
  19 C :   -0.275997
  20 H :    0.108122
  21 H :    0.093853
  22 H :    0.112911
  23 H :    0.100020
  24 H :    0.085780
  25 H :    0.123195
  26 H :    0.127917
  27 H :    0.103497
  28 H :    0.196918
  29 H :    0.194158
  30 H :    0.155124
  31 H :    0.156939
  32 H :    0.160817
  33 H :    0.129302
  34 H :    0.240410
  35 H :    0.166511
Sum of atomic charges:    0.0000000

LOEWDIN ATOMIC CHARGES
----------------------
   0 C :    0.104253
   1 C :   -0.012700
   2 O :    0.286448
   3 C :   -0.411546
   4 O :    0.124554
   5 C :   -0.092851
   6 C :   -0.068909
   7 C :    0.124949
   8 N :    0.404426
   9 C :   -0.458588
  10 S :   -0.036727
  11 N :    0.397512
  12 C :   -0.046291
  13 C :   -0.039822
  14 C :    0.021138
  15 C :    0.040263
  16 C :   -0.002488
  17 C :   -0.193218
  18 O :    0.393141
  19 C :    0.028016
  20 H :   -0.023308
  21 H :   -0.028691
  22 H :   -0.025599
  23 H :   -0.024183
  24 H :   -0.031952
  25 H :   -0.010453
  26 H :   -0.007558
  27 H :   -0.020632
  28 H :   -0.059049
  29 H :   -0.063893
  30 H :   -0.005207
  31 H :   -0.024909
  32 H :   -0.020878
  33 H :   -0.036106
  34 H :   -0.154558
  35 H :   -0.024581

  Mayer bond orders larger than 0.100000
B(  0-C ,  1-C ) :   0.9821 B(  0-C , 20-H ) :   0.9737 B(  0-C , 21-H ) :   0.9731
B(  0-C , 22-H ) :   0.9717 B(  1-C ,  2-O ) :   0.9041 B(  1-C , 23-H ) :   0.9800
B(  1-C , 24-H ) :   0.9743 B(  2-O ,  3-C ) :   1.0887 B(  3-C ,  4-O ) :   2.0110
B(  3-C ,  5-C ) :   1.0391 B(  5-C ,  6-C ) :   1.6632 B(  5-C , 12-C ) :   0.9632
B(  6-C ,  7-C ) :   0.9525 B(  6-C ,  8-N ) :   1.1413 B(  7-C , 25-H ) :   0.9649
B(  7-C , 26-H ) :   0.9671 B(  7-C , 27-H ) :   0.9903 B(  8-N ,  9-C ) :   1.1825
B(  8-N , 28-H ) :   0.9491 B(  9-C , 10-S ) :   1.6098 B(  9-C , 11-N ) :   1.3025
B( 11-N , 12-C ) :   0.9904 B( 11-N , 29-H ) :   0.9517 B( 12-C , 13-C ) :   0.9450
B( 12-C , 30-H ) :   0.9992 B( 13-C , 14-C ) :   1.3759 B( 13-C , 19-C ) :   1.3683
B( 14-C , 15-C ) :   1.3936 B( 14-C , 31-H ) :   0.9638 B( 15-C , 16-C ) :   1.3626
B( 15-C , 32-H ) :   0.9707 B( 16-C , 17-C ) :   1.3314 B( 16-C , 33-H ) :   0.9856
B( 17-C , 18-O ) :   1.1087 B( 17-C , 19-C ) :   1.3763 B( 18-O , 34-H ) :   0.9802
B( 19-C , 35-H ) :   0.9582

MP2 TOTAL ENERGY:    -1274.330571749 Eh
FINAL SINGLE POINT ENERGY     -1274.330571749365

DIPOLE MOMENT
-------------
                                X             Y             Z
Electronic contribution:      9.96742      10.59311       8.82975
Nuclear contribution   :    -11.56530     -11.79647      -9.64363
                        -----------------------------------------
Total Dipole Moment    :     -1.59788      -1.20337      -0.81389
                        -----------------------------------------
Magnitude (a.u.)       :      2.15956
Magnitude (Debye)      :      5.48917

Rotational constants in cm-1:     0.011336     0.009061     0.006190
Rotational constants in MHz :   339.848540   271.649634   185.558686

                             ****ORCA TERMINATED NORMALLY****
TOTAL RUN TIME: 0 days 1 hours 54 minutes 54 seconds 290 msec
