                         Program Version 4.2.0 -  RELEASE  -
|  1> ! ri-mp2 cc-pvtz cc-pvtz/c TightSCF  NoKeepInts
|  2>
|  3> %scf
|  4>   MaxCore 4096
|  5> end
|  6> *xyz  0  1
|  7>     C       15.0618016   15.7136165   17.4276543
|  8>     C       15.5467148   15.2698469   16.0308741
|  9>     O       16.9682148   14.9984140   15.9253282
| 10>     C       18.0819508   15.5936807   16.4783032
| 11>     O       19.1284468   14.9718495   16.4700120
| 12>     C       17.9268101   16.7630215   17.3956213
| 13>     C       17.4054999   17.9408286   16.9766491
| 14>     C       16.8766263   18.2689015   15.5965702
| 15>     N       17.4079639   19.0476650   17.8284824
| 16>     C       18.0617866   19.1025526   19.0313114
| 17>     S       18.0953741   20.4840048   19.9393522
| 18>     N       18.6916643   17.9538769   19.4419844
| 19>     C       18.5992551   16.6432340   18.7672104
| 20>     C       17.9005828   15.6080017   19.6456395
| 21>     C       18.3276421   14.2673728   19.6220222
| 22>     C       17.6903749   13.2965018   20.4121432
| 23>     C       16.6144421   13.6671423   21.2360115
| 24>     C       16.1833520   15.0000226   21.2626327
| 25>     O       15.1372553   15.3590710   22.0483390
| 26>     C       16.8190386   15.9649041   20.4746094
| 27>     H       15.5218872   15.0944198   18.2059856
| 28>     H       13.9771882   15.5679159   17.5009337
| 29>     H       15.2470598   16.7683615   17.6418358
| 30>     H       15.0116094   14.3518748   15.7545500
| 31>     H       15.2587600   16.0315727   15.2966076
| 32>     H       17.1670310   17.5187046   14.8511070
| 33>     H       17.2763441   19.2276127   15.2417934
| 34>     H       15.7826414   18.3435065   15.5998035
| 35>     H       16.9703566   19.9069488   17.5352086
| 36>     H       19.1567257   18.0189866   20.3386903
| 37>     H       19.6278020   16.2903538   18.5997343
| 38>     H       19.1535895   13.9740470   18.9770258
| 39>     H       18.0298569   12.2625562   20.3797400
| 40>     H       16.1182362   12.9196350   21.8460980
| 41>     H       14.8641915   14.5732681   22.5454688
| 42>     H       16.4589235   16.9877271   20.5086667
| 43> *
| 44>
| 45>                          ****END OF INPUT****

CARTESIAN COORDINATES (ANGSTROEM)
---------------------------------
  C     15.061802   15.713617   17.427654
  C     15.546715   15.269847   16.030874
  O     16.968215   14.998414   15.925328
  C     18.081951   15.593681   16.478303
  O     19.128447   14.971849   16.470012
  C     17.926810   16.763022   17.395621
  C     17.405500   17.940829   16.976649
  C     16.876626   18.268901   15.596570
  N     17.407964   19.047665   17.828482
  C     18.061787   19.102553   19.031311
  S     18.095374   20.484005   19.939352
  N     18.691664   17.953877   19.441984
  C     18.599255   16.643234   18.767210
  C     17.900583   15.608002   19.645640
  C     18.327642   14.267373   19.622022
  C     17.690375   13.296502   20.412143
  C     16.614442   13.667142   21.236012
  C     16.183352   15.000023   21.262633
  O     15.137255   15.359071   22.048339
  C     16.819039   15.964904   20.474609
  H     15.521887   15.094420   18.205986
  H     13.977188   15.567916   17.500934
  H     15.247060   16.768362   17.641836
  H     15.011609   14.351875   15.754550
  H     15.258760   16.031573   15.296608
  H     17.167031   17.518705   14.851107
  H     17.276344   19.227613   15.241793
  H     15.782641   18.343507   15.599804
  H     16.970357   19.906949   17.535209
  H     19.156726   18.018987   20.338690
  H     19.627802   16.290354   18.599734
  H     19.153589   13.974047   18.977026
  H     18.029857   12.262556   20.379740
  H     16.118236   12.919635   21.846098
  H     14.864192   14.573268   22.545469
  H     16.458924   16.987727   20.508667

 Total Charge           Charge          ....    0
 Multiplicity           Mult            ....    1
 Number of Electrons    NEL             ....  154
 Basis Dimension        Dim             ....  828

ORBITAL ENERGIES
----------------

  NO   OCC          E(Eh)            E(eV)
   0   2.0000     -91.890718     -2500.4736
   1   2.0000     -20.597679      -560.4913
   2   2.0000     -20.597675      -560.4912
   3   2.0000     -20.546403      -559.0961
   4   2.0000     -15.628829      -425.2821
   5   2.0000     -15.611203      -424.8024
   6   2.0000     -11.400557      -310.2249
   7   2.0000     -11.387064      -309.8578
   8   2.0000     -11.331564      -308.3475
   9   2.0000     -11.314366      -307.8795
  10   2.0000     -11.313435      -307.8542
  11   2.0000     -11.312550      -307.8301
  12   2.0000     -11.270908      -306.6970
  13   2.0000     -11.265732      -306.5561
  14   2.0000     -11.261759      -306.4480
  15   2.0000     -11.254857      -306.2602
  16   2.0000     -11.243931      -305.9629
  17   2.0000     -11.239446      -305.8409
  18   2.0000     -11.236312      -305.7556
  19   2.0000     -11.233142      -305.6693
  20   2.0000      -8.895812      -242.0674
  21   2.0000      -6.577399      -178.9801
  22   2.0000      -6.575375      -178.9250
  23   2.0000      -6.574797      -178.9093
  24   2.0000      -1.442158       -39.2431
  25   2.0000      -1.417490       -38.5719
  26   2.0000      -1.354197       -36.8496
  27   2.0000      -1.341594       -36.5066
  28   2.0000      -1.240480       -33.7552
  29   2.0000      -1.159112       -31.5410
  30   2.0000      -1.125372       -30.6229
  31   2.0000      -1.047859       -28.5137
  32   2.0000      -1.040577       -28.3155
  33   2.0000      -1.017310       -27.6824
  34   2.0000      -1.005689       -27.3662
  35   2.0000      -0.990506       -26.9530
  36   2.0000      -0.928167       -25.2567
  37   2.0000      -0.900390       -24.5008
  38   2.0000      -0.854839       -23.2614
  39   2.0000      -0.840905       -22.8822
  40   2.0000      -0.834486       -22.7075
  41   2.0000      -0.828385       -22.5415
  42   2.0000      -0.745385       -20.2830
  43   2.0000      -0.736811       -20.0496
  44   2.0000      -0.730633       -19.8815
  45   2.0000      -0.695026       -18.9126
  46   2.0000      -0.687003       -18.6943
  47   2.0000      -0.678513       -18.4633
  48   2.0000      -0.674380       -18.3508
  49   2.0000      -0.661809       -18.0087
  50   2.0000      -0.655782       -17.8447
  51   2.0000      -0.652076       -17.7439
  52   2.0000      -0.641477       -17.4555
  53   2.0000      -0.615603       -16.7514
  54   2.0000      -0.608670       -16.5627
  55   2.0000      -0.605287       -16.4707
  56   2.0000      -0.602171       -16.3859
  57   2.0000      -0.591433       -16.0937
  58   2.0000      -0.578118       -15.7314
  59   2.0000      -0.573047       -15.5934
  60   2.0000      -0.565652       -15.3922
  61   2.0000      -0.557114       -15.1598
  62   2.0000      -0.542913       -14.7734
  63   2.0000      -0.529629       -14.4119
  64   2.0000      -0.520484       -14.1631
  65   2.0000      -0.513740       -13.9796
  66   2.0000      -0.501254       -13.6398
  67   2.0000      -0.499513       -13.5924
  68   2.0000      -0.483346       -13.1525
  69   2.0000      -0.466479       -12.6936
  70   2.0000      -0.454164       -12.3584
  71   2.0000      -0.449240       -12.2244
  72   2.0000      -0.356595        -9.7034
  73   2.0000      -0.348797        -9.4912
  74   2.0000      -0.330252        -8.9866
  75   2.0000      -0.323093        -8.7918
  76   2.0000      -0.318878        -8.6771
  77   0.0000       0.082944         2.2570
  78   0.0000       0.107603         2.9280
  79   0.0000       0.113873         3.0986
  80   0.0000       0.129949         3.5361
  81   0.0000       0.131124         3.5681

MULLIKEN ATOMIC CHARGES
-----------------------
   0 C :   -0.340393
   1 C :    0.039236
   2 O :   -0.329551
   3 C :    0.420087
   4 O :   -0.385873
   5 C :   -0.196150
   6 C :    0.136018
   7 C :   -0.335636
   8 N :   -0.137556
   9 C :    0.201387
  10 S :   -0.439604
  11 N :   -0.223299
  12 C :    0.082093
  13 C :    0.018631
  14 C :   -0.211678
  15 C :   -0.135707
  16 C :   -0.276454
  17 C :    0.317654
  18 O :   -0.358001
  19 C :   -0.269955
  20 H :    0.131175
  21 H :    0.118800
  22 H :    0.108293
  23 H :    0.133096
  24 H :    0.083989
  25 H :    0.131627
  26 H :    0.138630
  27 H :    0.122522
  28 H :    0.197137
  29 H :    0.201650
  30 H :    0.167957
  31 H :    0.176594
  32 H :    0.163860
  33 H :    0.132034
  34 H :    0.241081
  35 H :    0.176305
Sum of atomic charges:   -0.0000000

LOEWDIN ATOMIC CHARGES
----------------------
   0 C :    0.104716
   1 C :   -0.015938
   2 O :    0.294017
   3 C :   -0.416050
   4 O :    0.120530
   5 C :   -0.080335
   6 C :   -0.097188
   7 C :    0.125432
   8 N :    0.402785
   9 C :   -0.457733
  10 S :   -0.036732
  11 N :    0.398372
  12 C :   -0.042457
  13 C :   -0.043279
  14 C :    0.019932
  15 C :    0.043896
  16 C :   -0.001786
  17 C :   -0.194098
  18 O :    0.395303
  19 C :    0.027978
  20 H :   -0.020904
  21 H :   -0.022667
  22 H :   -0.036844
  23 H :   -0.016677
  24 H :   -0.038422
  25 H :   -0.007541
  26 H :   -0.009532
  27 H :   -0.017802
  28 H :   -0.057726
  29 H :   -0.063411
  30 H :   -0.001704
  31 H :   -0.021637
  32 H :   -0.018576
  33 H :   -0.035033
  34 H :   -0.153586
  35 H :   -0.025301

  Mayer bond orders larger than 0.100000
B(  0-C ,  1-C ) :   0.9547 B(  0-C , 20-H ) :   0.9659 B(  0-C , 21-H ) :   0.9779
B(  0-C , 22-H ) :   0.9742 B(  1-C ,  2-O ) :   0.9084 B(  1-C , 23-H ) :   0.9792
B(  1-C , 24-H ) :   0.9744 B(  2-O ,  3-C ) :   1.1781 B(  3-C ,  4-O ) :   2.0732
B(  3-C ,  5-C ) :   0.9287 B(  5-C ,  6-C ) :   1.6973 B(  5-C , 12-C ) :   0.9556
B(  6-C ,  7-C ) :   0.9431 B(  6-C ,  8-N ) :   1.1006 B(  7-C , 25-H ) :   0.9789
B(  7-C , 26-H ) :   0.9739 B(  7-C , 27-H ) :   0.9641 B(  8-N ,  9-C ) :   1.1937
B(  8-N , 28-H ) :   0.9518 B(  9-C , 10-S ) :   1.6105 B(  9-C , 11-N ) :   1.2892
B( 11-N , 12-C ) :   0.9873 B( 11-N , 29-H ) :   0.9483 B( 12-C , 13-C ) :   0.9474
B( 12-C , 30-H ) :   0.9945 B( 13-C , 14-C ) :   1.3912 B( 13-C , 19-C ) :   1.3443
B( 14-C , 15-C ) :   1.3997 B( 14-C , 31-H ) :   0.9575 B( 15-C , 16-C ) :   1.3599
B( 15-C , 32-H ) :   0.9702 B( 16-C , 17-C ) :   1.3300 B( 16-C , 33-H ) :   0.9848
B( 17-C , 18-O ) :   1.1107 B( 17-C , 19-C ) :   1.3690 B( 18-O , 34-H ) :   0.9796
B( 19-C , 35-H ) :   0.9577

MP2 TOTAL ENERGY:    -1274.325321819 Eh
FINAL SINGLE POINT ENERGY     -1274.325321818770

DIPOLE MOMENT
-------------
                                X             Y             Z
Electronic contribution:      9.46877       5.74230       6.54029
Nuclear contribution   :    -11.09358      -6.75675      -7.18172
                        -----------------------------------------
Total Dipole Moment    :     -1.62482      -1.01445      -0.64143
                        -----------------------------------------
Magnitude (a.u.)       :      2.02004
Magnitude (Debye)      :      5.13454

Rotational constants in cm-1:     0.011593     0.009643     0.006807
Rotational constants in MHz :   347.556283   289.092331   204.069379

                             ****ORCA TERMINATED NORMALLY****
TOTAL RUN TIME: 0 days 2 hours 22 minutes 3 seconds 582 msec
