                         Program Version 5.0.0 -  RELEASE  -
|  1> ! ri-mp2 cc-pvtz cc-pvtz/c TightSCF NoKeepInts
|  2>
|  3> %scf
|  4>   MaxCore 4096
|  5> end
|  6> *xyz  0  1
|  7>     C       14.9071868   14.8821721   16.1067063
|  8>     C       16.0941694   14.4850934   17.0070584
|  9>     O       17.3332664   14.8953220   16.3869150
| 10>     C       17.5732575   16.2156362   16.1330379
| 11>     O       17.3649141   16.6624388   15.0198255
| 12>     C       17.7416590   17.0768128   17.3545206
| 13>     C       17.3380434   18.3718649   17.3793853
| 14>     C       16.5227356   19.0959416   16.3301304
| 15>     N       17.7218999   19.2025140   18.4364260
| 16>     C       18.6976184   18.8905811   19.3467377
| 17>     S       19.2535001   19.9916409   20.4482168
| 18>     N       19.1972350   17.6131112   19.2903536
| 19>     C       18.6007256   16.5167715   18.5037142
| 20>     C       17.8590424   15.5780499   19.4482592
| 21>     C       18.2382930   14.2258241   19.5471858
| 22>     C       17.5559129   13.3532399   20.4113593
| 23>     C       16.4895037   13.8367855   21.1882973
| 24>     C       16.1149688   15.1843371   21.1003184
| 25>     O       15.0839890   15.6538004   21.8463904
| 26>     C       16.7937265   16.0501940   20.2372745
| 27>     H       14.7932231   15.9717899   16.0551628
| 28>     H       13.9725664   14.4633099   16.4988147
| 29>     H       15.0518573   14.5016651   15.0874589
| 30>     H       15.9502771   14.9469942   17.9867685
| 31>     H       16.1012207   13.3960133   17.1432418
| 32>     H       15.6830032   18.4767197   15.9912710
| 33>     H       17.1407772   19.3156597   15.4498069
| 34>     H       16.1053417   20.0419449   16.6944268
| 35>     H       17.3817295   20.1503629   18.4736683
| 36>     H       19.9015703   17.4052961   19.9868572
| 37>     H       19.4266413   15.9530208   18.0470494
| 38>     H       19.0599518   13.8464513   18.9447405
| 39>     H       17.8553842   12.3084246   20.4784810
| 40>     H       15.9604120   13.1663657   21.8579546
| 41>     H       14.7913782   14.9353955   22.4275565
| 42>     H       16.4900186   17.0904548   20.1886285
| 43> *
| 44>
| 45>                          ****END OF INPUT****

CARTESIAN COORDINATES (ANGSTROEM)
---------------------------------
  C     14.907187   14.882172   16.106706
  C     16.094169   14.485093   17.007058
  O     17.333266   14.895322   16.386915
  C     17.573258   16.215636   16.133038
  O     17.364914   16.662439   15.019825
  C     17.741659   17.076813   17.354521
  C     17.338043   18.371865   17.379385
  C     16.522736   19.095942   16.330130
  N     17.721900   19.202514   18.436426
  C     18.697618   18.890581   19.346738
  S     19.253500   19.991641   20.448217
  N     19.197235   17.613111   19.290354
  C     18.600726   16.516772   18.503714
  C     17.859042   15.578050   19.448259
  C     18.238293   14.225824   19.547186
  C     17.555913   13.353240   20.411359
  C     16.489504   13.836785   21.188297
  C     16.114969   15.184337   21.100318
  O     15.083989   15.653800   21.846390
  C     16.793726   16.050194   20.237275
  H     14.793223   15.971790   16.055163
  H     13.972566   14.463310   16.498815
  H     15.051857   14.501665   15.087459
  H     15.950277   14.946994   17.986769
  H     16.101221   13.396013   17.143242
  H     15.683003   18.476720   15.991271
  H     17.140777   19.315660   15.449807
  H     16.105342   20.041945   16.694427
  H     17.381729   20.150363   18.473668
  H     19.901570   17.405296   19.986857
  H     19.426641   15.953021   18.047049
  H     19.059952   13.846451   18.944741
  H     17.855384   12.308425   20.478481
  H     15.960412   13.166366   21.857955
  H     14.791378   14.935396   22.427556
  H     16.490019   17.090455   20.188628

 Total Charge           Charge          ....    0
 Multiplicity           Mult            ....    1
 Number of Electrons    NEL             ....  154
 Basis Dimension        Dim             ....  828

ORBITAL ENERGIES
----------------

  NO   OCC          E(Eh)            E(eV)
   0   2.0000     -91.891872     -2500.5050
   1   2.0000     -20.602376      -560.6191
   2   2.0000     -20.582073      -560.0667
   3   2.0000     -20.551846      -559.2442
   4   2.0000     -15.631244      -425.3478
   5   2.0000     -15.611101      -424.7997
   6   2.0000     -11.393532      -310.0338
   7   2.0000     -11.386577      -309.8445
   8   2.0000     -11.336477      -308.4812
   9   2.0000     -11.320526      -308.0472
  10   2.0000     -11.315623      -307.9138
  11   2.0000     -11.297017      -307.4075
  12   2.0000     -11.265302      -306.5445
  13   2.0000     -11.261556      -306.4425
  14   2.0000     -11.260043      -306.4013
  15   2.0000     -11.255500      -306.2777
  16   2.0000     -11.249728      -306.1207
  17   2.0000     -11.244198      -305.9702
  18   2.0000     -11.243777      -305.9587
  19   2.0000     -11.224424      -305.4321
  20   2.0000      -8.896887      -242.0966
  21   2.0000      -6.578450      -179.0087
  22   2.0000      -6.576458      -178.9545
  23   2.0000      -6.575859      -178.9382
  24   2.0000      -1.445518       -39.3345
  25   2.0000      -1.422117       -38.6978
  26   2.0000      -1.353694       -36.8359
  27   2.0000      -1.342883       -36.5417
  28   2.0000      -1.241630       -33.7865
  29   2.0000      -1.163103       -31.6496
  30   2.0000      -1.122489       -30.5445
  31   2.0000      -1.047770       -28.5113
  32   2.0000      -1.031058       -28.0565
  33   2.0000      -1.021531       -27.7973
  34   2.0000      -1.000773       -27.2324
  35   2.0000      -0.987719       -26.8772
  36   2.0000      -0.927117       -25.2281
  37   2.0000      -0.888119       -24.1670
  38   2.0000      -0.850835       -23.1524
  39   2.0000      -0.845117       -22.9968
  40   2.0000      -0.840154       -22.8618
  41   2.0000      -0.829802       -22.5801
  42   2.0000      -0.751898       -20.4602
  43   2.0000      -0.736190       -20.0327
  44   2.0000      -0.717296       -19.5186
  45   2.0000      -0.701374       -19.0854
  46   2.0000      -0.692010       -18.8305
  47   2.0000      -0.681298       -18.5390
  48   2.0000      -0.670233       -18.2380
  49   2.0000      -0.666858       -18.1461
  50   2.0000      -0.652817       -17.7640
  51   2.0000      -0.649538       -17.6748
  52   2.0000      -0.637955       -17.3596
  53   2.0000      -0.613531       -16.6950
  54   2.0000      -0.611924       -16.6513
  55   2.0000      -0.603892       -16.4327
  56   2.0000      -0.602286       -16.3890
  57   2.0000      -0.582268       -15.8443
  58   2.0000      -0.575568       -15.6620
  59   2.0000      -0.567664       -15.4469
  60   2.0000      -0.554669       -15.0933
  61   2.0000      -0.547363       -14.8945
  62   2.0000      -0.539256       -14.6739
  63   2.0000      -0.530258       -14.4290
  64   2.0000      -0.525121       -14.2893
  65   2.0000      -0.518270       -14.1029
  66   2.0000      -0.506076       -13.7710
  67   2.0000      -0.497945       -13.5498
  68   2.0000      -0.476918       -12.9776
  69   2.0000      -0.468728       -12.7547
  70   2.0000      -0.454177       -12.3588
  71   2.0000      -0.445573       -12.1247
  72   2.0000      -0.359315        -9.7775
  73   2.0000      -0.354061        -9.6345
  74   2.0000      -0.331583        -9.0228
  75   2.0000      -0.328138        -8.9291
  76   2.0000      -0.319105        -8.6833
  77   0.0000       0.070363         1.9147
  78   0.0000       0.100453         2.7335
  79   0.0000       0.120441         3.2774
  80   0.0000       0.127277         3.4634
  81   0.0000       0.131251         3.5715

MULLIKEN ATOMIC CHARGES
-----------------------
   0 C :   -0.275977
   1 C :    0.028265
   2 O :   -0.369964
   3 C :    0.437728
   4 O :   -0.378799
   5 C :   -0.231956
   6 C :    0.150457
   7 C :   -0.274112
   8 N :   -0.125476
   9 C :    0.199587
  10 S :   -0.432403
  11 N :   -0.188835
  12 C :    0.034558
  13 C :    0.030012
  14 C :   -0.160454
  15 C :   -0.137975
  16 C :   -0.272807
  17 C :    0.302888
  18 O :   -0.355285
  19 C :   -0.255303
  20 H :    0.084758
  21 H :    0.099466
  22 H :    0.112485
  23 H :    0.104750
  24 H :    0.115894
  25 H :    0.122363
  26 H :    0.140583
  27 H :    0.095393
  28 H :    0.198274
  29 H :    0.190760
  30 H :    0.149480
  31 H :    0.150340
  32 H :    0.164322
  33 H :    0.134399
  34 H :    0.241556
  35 H :    0.171029
Sum of atomic charges:    0.0000000

LOEWDIN ATOMIC CHARGES
----------------------
   0 C :    0.106312
   1 C :   -0.018046
   2 O :    0.282741
   3 C :   -0.423436
   4 O :    0.131723
   5 C :   -0.097764
   6 C :   -0.065214
   7 C :    0.130148
   8 N :    0.406070
   9 C :   -0.458214
  10 S :   -0.030741
  11 N :    0.396557
  12 C :   -0.051865
  13 C :   -0.042514
  14 C :    0.017058
  15 C :    0.042907
  16 C :   -0.000399
  17 C :   -0.191639
  18 O :    0.396957
  19 C :    0.030102
  20 H :   -0.032293
  21 H :   -0.026883
  22 H :   -0.021773
  23 H :   -0.037926
  24 H :   -0.021503
  25 H :   -0.009220
  26 H :   -0.002652
  27 H :   -0.022307
  28 H :   -0.057442
  29 H :   -0.064851
  30 H :   -0.006031
  31 H :   -0.028241
  32 H :   -0.019374
  33 H :   -0.034073
  34 H :   -0.152542
  35 H :   -0.023632

  Mayer bond orders larger than 0.100000
B(  0-C ,  1-C ) :   0.9814 B(  0-C , 20-H ) :   0.9742 B(  0-C , 21-H ) :   0.9765
B(  0-C , 22-H ) :   0.9770 B(  1-C ,  2-O ) :   0.8826 B(  1-C , 23-H ) :   0.9609
B(  1-C , 24-H ) :   0.9796 B(  2-O ,  3-C ) :   1.1238 B(  3-C ,  4-O ) :   2.0724
B(  3-C ,  5-C ) :   0.9941 B(  5-C ,  6-C ) :   1.6752 B(  5-C , 12-C ) :   0.9638
B(  6-C ,  7-C ) :   0.9662 B(  6-C ,  8-N ) :   1.1407 B(  7-C , 25-H ) :   0.9703
B(  7-C , 26-H ) :   0.9555 B(  7-C , 27-H ) :   0.9858 B(  8-N ,  9-C ) :   1.1796
B(  8-N , 28-H ) :   0.9493 B(  9-C , 10-S ) :   1.6215 B(  9-C , 11-N ) :   1.2934
B( 11-N , 12-C ) :   0.9912 B( 11-N , 29-H ) :   0.9538 B( 12-C , 13-C ) :   0.9460
B( 12-C , 30-H ) :   1.0066 B( 13-C , 14-C ) :   1.3689 B( 13-C , 19-C ) :   1.3646
B( 14-C , 15-C ) :   1.3856 B( 14-C , 31-H ) :   0.9715 B( 15-C , 16-C ) :   1.3683
B( 15-C , 32-H ) :   0.9698 B( 16-C , 17-C ) :   1.3271 B( 16-C , 33-H ) :   0.9832
B( 17-C , 18-O ) :   1.1155 B( 17-C , 19-C ) :   1.3775 B( 18-O , 34-H ) :   0.9790
B( 19-C , 35-H ) :   0.9568

MP2 TOTAL ENERGY:    -1274.326232014 Eh
FINAL SINGLE POINT ENERGY     -1274.326232013599

DIPOLE MOMENT
-------------
                                X             Y             Z
Electronic contribution:     10.84149       7.80623       7.13990
Nuclear contribution   :    -12.05980      -9.38407      -6.80396
                        -----------------------------------------
Total Dipole Moment    :     -1.21832      -1.57784       0.33593
                        -----------------------------------------
Magnitude (a.u.)       :      2.02156
Magnitude (Debye)      :      5.13841

Rotational constants in cm-1:     0.011318     0.009852     0.006480
Rotational constants in MHz :   339.297828   295.366731   194.275704

                             ****ORCA TERMINATED NORMALLY****
TOTAL RUN TIME: 0 days 2 hours 5 minutes 35 seconds 373 msec
