                         Program Version 5.0.0 -  RELEASE  -
|  1> ! ri-mp2 cc-pvtz cc-pvtz/c TightSCF NoKeepInts
|  2>
|  3> %scf
|  4>   MaxCore 4096
|  5> end
|  6> *xyz  0  1
|  7>     C       14.9255031   15.6901778   17.4747132
|  8>     C       15.6566103   15.0790673   16.2614226
|  9>     O       17.0344258   14.7891832   16.5656468
| 10>     C       18.0585513   15.6924088   16.4536094
| 11>     O       19.1707081   15.2472838   16.2403947
| 12>     C       17.9438287   16.8536572   17.3781574
| 13>     C       17.4052031   18.0245860   16.9727364
| 14>     C       16.8131729   18.3191793   15.6114102
| 15>     N       17.4016606   19.1241602   17.8335910
| 16>     C       18.0321029   19.1598646   19.0505010
| 17>     S       18.0384220   20.5249444   19.9837917
| 18>     N       18.6560003   18.0054370   19.4577740
| 19>     C       18.6034278   16.7093053   18.7502289
| 20>     C       17.9234790   15.6328429   19.5922299
| 21>     C       18.3979451   14.3088862   19.5492106
| 22>     C       17.7811551   13.3004139   20.3078899
| 23>     C       16.6784951   13.6167830   21.1190876
| 24>     C       16.1997877   14.9329439   21.1629378
| 25>     O       15.1267771   15.2389057   21.9348023
| 26>     C       16.8150213   15.9352772   20.4061261
| 27>     H       15.0500728   15.0457248   18.3536448
| 28>     H       13.8509180   15.7636532   17.2683630
| 29>     H       15.2791570   16.6917964   17.7298400
| 30>     H       15.1568619   14.1354843   16.0060442
| 31>     H       15.5800356   15.7378987   15.3874288
| 32>     H       17.2064142   17.6471100   14.8386887
| 33>     H       17.0531632   19.3398739   15.2870331
| 34>     H       15.7210356   18.2208357   15.6277428
| 35>     H       16.9611931   19.9847739   17.5488717
| 36>     H       19.0983722   18.0567896   20.3666775
| 37>     H       19.6412490   16.3871982   18.5787568
| 38>     H       19.2408466   14.0580981   18.9084288
| 39>     H       18.1553626   12.2793266   20.2589905
| 40>     H       16.1973994   12.8400447   21.7040862
| 41>     H       14.8730248   14.4337172   22.4106154
| 42>     H       16.4196166   16.9443670   20.4525261
| 43> *
| 44>
| 45>                          ****END OF INPUT****

CARTESIAN COORDINATES (ANGSTROEM)
---------------------------------
  C     14.925503   15.690178   17.474713
  C     15.656610   15.079067   16.261423
  O     17.034426   14.789183   16.565647
  C     18.058551   15.692409   16.453609
  O     19.170708   15.247284   16.240395
  C     17.943829   16.853657   17.378157
  C     17.405203   18.024586   16.972736
  C     16.813173   18.319179   15.611410
  N     17.401661   19.124160   17.833591
  C     18.032103   19.159865   19.050501
  S     18.038422   20.524944   19.983792
  N     18.656000   18.005437   19.457774
  C     18.603428   16.709305   18.750229
  C     17.923479   15.632843   19.592230
  C     18.397945   14.308886   19.549211
  C     17.781155   13.300414   20.307890
  C     16.678495   13.616783   21.119088
  C     16.199788   14.932944   21.162938
  O     15.126777   15.238906   21.934802
  C     16.815021   15.935277   20.406126
  H     15.050073   15.045725   18.353645
  H     13.850918   15.763653   17.268363
  H     15.279157   16.691796   17.729840
  H     15.156862   14.135484   16.006044
  H     15.580036   15.737899   15.387429
  H     17.206414   17.647110   14.838689
  H     17.053163   19.339874   15.287033
  H     15.721036   18.220836   15.627743
  H     16.961193   19.984774   17.548872
  H     19.098372   18.056790   20.366677
  H     19.641249   16.387198   18.578757
  H     19.240847   14.058098   18.908429
  H     18.155363   12.279327   20.258990
  H     16.197399   12.840045   21.704086
  H     14.873025   14.433717   22.410615
  H     16.419617   16.944367   20.452526

 Total Charge           Charge          ....    0
 Multiplicity           Mult            ....    1
 Number of Electrons    NEL             ....  154
 Basis Dimension        Dim             ....  828

ORBITAL ENERGIES
----------------

  NO   OCC          E(Eh)            E(eV)
   0   2.0000     -91.887651     -2500.3901
   1   2.0000     -20.597720      -560.4925
   2   2.0000     -20.596665      -560.4638
   3   2.0000     -20.560258      -559.4731
   4   2.0000     -15.623329      -425.1324
   5   2.0000     -15.610104      -424.7725
   6   2.0000     -11.396929      -310.1262
   7   2.0000     -11.384494      -309.7878
   8   2.0000     -11.321498      -308.0736
   9   2.0000     -11.315412      -307.9080
  10   2.0000     -11.312781      -307.8364
  11   2.0000     -11.309185      -307.7386
  12   2.0000     -11.270273      -306.6797
  13   2.0000     -11.263697      -306.5008
  14   2.0000     -11.260498      -306.4137
  15   2.0000     -11.253386      -306.2202
  16   2.0000     -11.242696      -305.9293
  17   2.0000     -11.238267      -305.8088
  18   2.0000     -11.235947      -305.7457
  19   2.0000     -11.229838      -305.5794
  20   2.0000      -8.892783      -241.9849
  21   2.0000      -6.574380      -178.8980
  22   2.0000      -6.572346      -178.8426
  23   2.0000      -6.571780      -178.8272
  24   2.0000      -1.454221       -39.5714
  25   2.0000      -1.416496       -38.5448
  26   2.0000      -1.362171       -37.0666
  27   2.0000      -1.337285       -36.3894
  28   2.0000      -1.237568       -33.6759
  29   2.0000      -1.157745       -31.5038
  30   2.0000      -1.123775       -30.5795
  31   2.0000      -1.046997       -28.4902
  32   2.0000      -1.038989       -28.2723
  33   2.0000      -1.015665       -27.6376
  34   2.0000      -1.003541       -27.3077
  35   2.0000      -0.988190       -26.8900
  36   2.0000      -0.926236       -25.2042
  37   2.0000      -0.894918       -24.3519
  38   2.0000      -0.851468       -23.1696
  39   2.0000      -0.838586       -22.8191
  40   2.0000      -0.833419       -22.6785
  41   2.0000      -0.829963       -22.5844
  42   2.0000      -0.754476       -20.5303
  43   2.0000      -0.736766       -20.0484
  44   2.0000      -0.729768       -19.8580
  45   2.0000      -0.694193       -18.8899
  46   2.0000      -0.687942       -18.7198
  47   2.0000      -0.681269       -18.5383
  48   2.0000      -0.675678       -18.3861
  49   2.0000      -0.665465       -18.1082
  50   2.0000      -0.650938       -17.7129
  51   2.0000      -0.645218       -17.5573
  52   2.0000      -0.639207       -17.3937
  53   2.0000      -0.612846       -16.6764
  54   2.0000      -0.606927       -16.5153
  55   2.0000      -0.603336       -16.4176
  56   2.0000      -0.601105       -16.3569
  57   2.0000      -0.589419       -16.0389
  58   2.0000      -0.585941       -15.9443
  59   2.0000      -0.574160       -15.6237
  60   2.0000      -0.564676       -15.3656
  61   2.0000      -0.556837       -15.1523
  62   2.0000      -0.543565       -14.7912
  63   2.0000      -0.526065       -14.3150
  64   2.0000      -0.516451       -14.0533
  65   2.0000      -0.511841       -13.9279
  66   2.0000      -0.500168       -13.6103
  67   2.0000      -0.499857       -13.6018
  68   2.0000      -0.488018       -13.2796
  69   2.0000      -0.463715       -12.6183
  70   2.0000      -0.457903       -12.4602
  71   2.0000      -0.453868       -12.3504
  72   2.0000      -0.353799        -9.6274
  73   2.0000      -0.347144        -9.4463
  74   2.0000      -0.327461        -8.9107
  75   2.0000      -0.320739        -8.7278
  76   2.0000      -0.315528        -8.5860
  77   0.0000       0.089800         2.4436
  78   0.0000       0.099010         2.6942
  79   0.0000       0.111758         3.0411
  80   0.0000       0.128099         3.4857
  81   0.0000       0.130920         3.5625

MULLIKEN ATOMIC CHARGES
-----------------------
   0 C :   -0.315808
   1 C :    0.008093
   2 O :   -0.319295
   3 C :    0.381786
   4 O :   -0.357379
   5 C :   -0.143585
   6 C :    0.121568
   7 C :   -0.331899
   8 N :   -0.136229
   9 C :    0.209249
  10 S :   -0.445054
  11 N :   -0.224824
  12 C :    0.064637
  13 C :    0.055393
  14 C :   -0.199656
  15 C :   -0.135001
  16 C :   -0.274952
  17 C :    0.314847
  18 O :   -0.360802
  19 C :   -0.285886
  20 H :    0.126320
  21 H :    0.112354
  22 H :    0.101644
  23 H :    0.129609
  24 H :    0.088152
  25 H :    0.122591
  26 H :    0.130590
  27 H :    0.124986
  28 H :    0.194974
  29 H :    0.201414
  30 H :    0.168673
  31 H :    0.162350
  32 H :    0.162007
  33 H :    0.131637
  34 H :    0.240949
  35 H :    0.176545
Sum of atomic charges:    0.0000000

LOEWDIN ATOMIC CHARGES
----------------------
   0 C :    0.104646
   1 C :   -0.024790
   2 O :    0.313059
   3 C :   -0.421965
   4 O :    0.145048
   5 C :   -0.077247
   6 C :   -0.112908
   7 C :    0.122949
   8 N :    0.399818
   9 C :   -0.455447
  10 S :   -0.041277
  11 N :    0.398444
  12 C :   -0.041204
  13 C :   -0.040623
  14 C :    0.024520
  15 C :    0.044289
  16 C :   -0.002304
  17 C :   -0.194773
  18 O :    0.394792
  19 C :    0.029895
  20 H :   -0.020441
  21 H :   -0.026255
  22 H :   -0.038065
  23 H :   -0.018822
  24 H :   -0.039043
  25 H :   -0.011221
  26 H :   -0.011157
  27 H :   -0.017431
  28 H :   -0.060199
  29 H :   -0.063822
  30 H :   -0.002099
  31 H :   -0.022826
  32 H :   -0.019251
  33 H :   -0.035386
  34 H :   -0.153813
  35 H :   -0.025092

  Mayer bond orders larger than 0.100000
B(  0-C ,  1-C ) :   0.9601 B(  0-C , 20-H ) :   0.9714 B(  0-C , 21-H ) :   0.9773
B(  0-C , 22-H ) :   0.9746 B(  1-C ,  2-O ) :   0.9133 B(  1-C , 23-H ) :   0.9838
B(  1-C , 24-H ) :   0.9801 B(  2-O ,  3-C ) :   1.1025 B(  3-C ,  4-O ) :   2.1004
B(  3-C ,  5-C ) :   0.9193 B(  5-C ,  6-C ) :   1.7252 B(  5-C , 12-C ) :   0.9585
B(  6-C ,  7-C ) :   0.9343 B(  6-C ,  8-N ) :   1.0942 B(  7-C , 25-H ) :   0.9812
B(  7-C , 26-H ) :   0.9781 B(  7-C , 27-H ) :   0.9649 B(  8-N ,  9-C ) :   1.2014
B(  8-N , 28-H ) :   0.9535 B(  9-C , 10-S ) :   1.6046 B(  9-C , 11-N ) :   1.2839
B( 11-N , 12-C ) :   0.9879 B( 11-N , 29-H ) :   0.9470 B( 12-C , 13-C ) :   0.9496
B( 12-C , 30-H ) :   0.9972 B( 13-C , 14-C ) :   1.3822 B( 13-C , 19-C ) :   1.3399
B( 14-C , 15-C ) :   1.4016 B( 14-C , 31-H ) :   0.9648 B( 15-C , 16-C ) :   1.3586
B( 15-C , 32-H ) :   0.9706 B( 16-C , 17-C ) :   1.3314 B( 16-C , 33-H ) :   0.9850
B( 17-C , 18-O ) :   1.1062 B( 17-C , 19-C ) :   1.3664 B( 18-O , 34-H ) :   0.9797
B( 19-C , 35-H ) :   0.9582

MP2 TOTAL ENERGY:    -1274.312805884 Eh
FINAL SINGLE POINT ENERGY     -1274.312805883660

DIPOLE MOMENT
-------------
                                X             Y             Z
Electronic contribution:      9.70283       5.92170       6.54559
Nuclear contribution   :    -11.25457      -7.20963      -7.43108
                        -----------------------------------------
Total Dipole Moment    :     -1.55174      -1.28793      -0.88549
                        -----------------------------------------
Magnitude (a.u.)       :      2.20244
Magnitude (Debye)      :      5.59815

Rotational constants in cm-1:     0.012165     0.009461     0.006918
Rotational constants in MHz :   364.695465   283.622976   207.395945

                             ****ORCA TERMINATED NORMALLY****
TOTAL RUN TIME: 0 days 1 hours 43 minutes 20 seconds 895 msec
