                         Program Version 4.2.0 -  RELEASE  -
|  1> ! ri-mp2 cc-pvtz cc-pvtz/c TightSCF  NoKeepInts
|  2>
|  3> %scf
|  4>   MaxCore 4096
|  5> end
|  6> *xyz  0  1
|  7>     C       14.1695288   15.0195538   15.8118017
|  8>     C       15.6189861   14.6502696   16.1686977
|  9>     O       16.4176311   15.8329306   16.0088448
| 10>     C       17.6596580   15.8385455   16.5704476
| 11>     O       18.3188167   14.8152806   16.6554337
| 12>     C       17.8680542   16.9907081   17.5077733
| 13>     C       17.2902549   18.2102223   17.3590467
| 14>     C       16.3737266   18.6697323   16.2439672
| 15>     N       17.5872089   19.2345488   18.2635995
| 16>     C       18.5452085   19.1626204   19.2405526
| 17>     S       18.9175049   20.4624484   20.1930988
| 18>     N       19.1806656   17.9553041   19.3872910
| 19>     C       18.8046851   16.7121213   18.6876948
| 20>     C       18.1707324   15.7219142   19.6612011
| 21>     C       18.6953218   14.4237235   19.8005360
| 22>     C       18.1097179   13.5057337   20.6883845
| 23>     C       16.9884831   13.8878464   21.4443455
| 24>     C       16.4602931   15.1785073   21.3056659
| 25>     O       15.3730397   15.5481803   22.0284777
| 26>     C       17.0449882   16.0897594   20.4207335
| 27>     H       13.7972697   15.8104714   16.4746408
| 28>     H       13.5139910   14.1465474   15.9173287
| 29>     H       14.1050084   15.3744232   14.7756824
| 30>     H       15.6596946   14.2998752   17.2096498
| 31>     H       15.9871235   13.8478747   15.5152282
| 32>     H       16.7475282   18.3374878   15.2673832
| 33>     H       16.2824794   19.7616868   16.1968735
| 34>     H       15.3663884   18.2555881   16.3762141
| 35>     H       17.1318914   20.1286255   18.1717293
| 36>     H       19.8607249   17.9203381   20.1358060
| 37>     H       19.7248230   16.2625128   18.2871905
| 38>     H       19.5513303   14.1198768   19.2028726
| 39>     H       18.5220783   12.5027195   20.7824240
| 40>     H       16.5321278   13.1814008   22.1296698
| 41>     H       15.1479031   14.8081687   22.6120896
| 42>     H       16.6221322   17.0844526   20.3316240
| 43> *
| 44>
| 45>                          ****END OF INPUT****

CARTESIAN COORDINATES (ANGSTROEM)
---------------------------------
  C     14.169529   15.019554   15.811802
  C     15.618986   14.650270   16.168698
  O     16.417631   15.832931   16.008845
  C     17.659658   15.838545   16.570448
  O     18.318817   14.815281   16.655434
  C     17.868054   16.990708   17.507773
  C     17.290255   18.210222   17.359047
  C     16.373727   18.669732   16.243967
  N     17.587209   19.234549   18.263600
  C     18.545209   19.162620   19.240553
  S     18.917505   20.462448   20.193099
  N     19.180666   17.955304   19.387291
  C     18.804685   16.712121   18.687695
  C     18.170732   15.721914   19.661201
  C     18.695322   14.423723   19.800536
  C     18.109718   13.505734   20.688385
  C     16.988483   13.887846   21.444346
  C     16.460293   15.178507   21.305666
  O     15.373040   15.548180   22.028478
  C     17.044988   16.089759   20.420733
  H     13.797270   15.810471   16.474641
  H     13.513991   14.146547   15.917329
  H     14.105008   15.374423   14.775682
  H     15.659695   14.299875   17.209650
  H     15.987123   13.847875   15.515228
  H     16.747528   18.337488   15.267383
  H     16.282479   19.761687   16.196873
  H     15.366388   18.255588   16.376214
  H     17.131891   20.128625   18.171729
  H     19.860725   17.920338   20.135806
  H     19.724823   16.262513   18.287191
  H     19.551330   14.119877   19.202873
  H     18.522078   12.502719   20.782424
  H     16.532128   13.181401   22.129670
  H     15.147903   14.808169   22.612090
  H     16.622132   17.084453   20.331624

 Total Charge           Charge          ....    0
 Multiplicity           Mult            ....    1
 Number of Electrons    NEL             ....  154
 Basis Dimension        Dim             ....  828

ORBITAL ENERGIES
----------------

  NO   OCC          E(Eh)            E(eV)
   0   2.0000     -91.888340     -2500.4089
   1   2.0000     -20.593943      -560.3897
   2   2.0000     -20.593835      -560.3867
   3   2.0000     -20.550879      -559.2178
   4   2.0000     -15.628231      -425.2658
   5   2.0000     -15.607488      -424.7014
   6   2.0000     -11.394297      -310.0546
   7   2.0000     -11.383583      -309.7630
   8   2.0000     -11.334196      -308.4192
   9   2.0000     -11.309929      -307.7588
  10   2.0000     -11.307277      -307.6866
  11   2.0000     -11.298842      -307.4571
  12   2.0000     -11.260051      -306.4016
  13   2.0000     -11.259514      -306.3870
  14   2.0000     -11.255595      -306.2803
  15   2.0000     -11.249984      -306.1276
  16   2.0000     -11.239673      -305.8470
  17   2.0000     -11.235687      -305.7386
  18   2.0000     -11.234127      -305.6961
  19   2.0000     -11.232742      -305.6584
  20   2.0000      -8.893410      -242.0020
  21   2.0000      -6.574988      -178.9145
  22   2.0000      -6.572980      -178.8599
  23   2.0000      -6.572395      -178.8440
  24   2.0000      -1.454840       -39.5882
  25   2.0000      -1.413698       -38.4687
  26   2.0000      -1.357034       -36.9268
  27   2.0000      -1.339284       -36.4438
  28   2.0000      -1.237303       -33.6687
  29   2.0000      -1.154213       -31.4077
  30   2.0000      -1.120498       -30.4903
  31   2.0000      -1.044477       -28.4217
  32   2.0000      -1.036958       -28.2171
  33   2.0000      -1.011614       -27.5274
  34   2.0000      -0.998471       -27.1698
  35   2.0000      -0.984150       -26.7801
  36   2.0000      -0.922163       -25.0933
  37   2.0000      -0.885725       -24.1018
  38   2.0000      -0.847287       -23.0558
  39   2.0000      -0.836640       -22.7661
  40   2.0000      -0.830097       -22.5881
  41   2.0000      -0.821174       -22.3453
  42   2.0000      -0.759645       -20.6710
  43   2.0000      -0.735947       -20.0261
  44   2.0000      -0.726589       -19.7715
  45   2.0000      -0.692270       -18.8376
  46   2.0000      -0.683885       -18.6094
  47   2.0000      -0.681939       -18.5565
  48   2.0000      -0.676375       -18.4051
  49   2.0000      -0.657204       -17.8834
  50   2.0000      -0.651960       -17.7407
  51   2.0000      -0.643836       -17.5197
  52   2.0000      -0.635484       -17.2924
  53   2.0000      -0.604971       -16.4621
  54   2.0000      -0.602258       -16.3883
  55   2.0000      -0.601619       -16.3709
  56   2.0000      -0.597354       -16.2548
  57   2.0000      -0.576044       -15.6749
  58   2.0000      -0.574938       -15.6449
  59   2.0000      -0.564639       -15.3646
  60   2.0000      -0.559683       -15.2298
  61   2.0000      -0.551488       -15.0067
  62   2.0000      -0.543365       -14.7857
  63   2.0000      -0.519708       -14.1420
  64   2.0000      -0.515980       -14.0405
  65   2.0000      -0.510866       -13.9014
  66   2.0000      -0.506931       -13.7943
  67   2.0000      -0.496962       -13.5230
  68   2.0000      -0.481845       -13.1117
  69   2.0000      -0.463709       -12.6182
  70   2.0000      -0.459830       -12.5126
  71   2.0000      -0.454185       -12.3590
  72   2.0000      -0.353931        -9.6309
  73   2.0000      -0.346024        -9.4158
  74   2.0000      -0.327573        -8.9137
  75   2.0000      -0.317042        -8.6272
  76   2.0000      -0.315113        -8.5747
  77   0.0000       0.073668         2.0046
  78   0.0000       0.108640         2.9562
  79   0.0000       0.119467         3.2509
  80   0.0000       0.134102         3.6491
  81   0.0000       0.138573         3.7708

MULLIKEN ATOMIC CHARGES
-----------------------
   0 C :   -0.280489
   1 C :    0.055755
   2 O :   -0.353855
   3 C :    0.430602
   4 O :   -0.407832
   5 C :   -0.176411
   6 C :    0.140895
   7 C :   -0.285221
   8 N :   -0.124612
   9 C :    0.202913
  10 S :   -0.439898
  11 N :   -0.199613
  12 C :    0.048272
  13 C :    0.050762
  14 C :   -0.161108
  15 C :   -0.133282
  16 C :   -0.280889
  17 C :    0.311795
  18 O :   -0.358803
  19 C :   -0.276696
  20 H :    0.093007
  21 H :    0.101561
  22 H :    0.098003
  23 H :    0.091542
  24 H :    0.101901
  25 H :    0.125279
  26 H :    0.104695
  27 H :    0.125832
  28 H :    0.197141
  29 H :    0.194026
  30 H :    0.154260
  31 H :    0.154488
  32 H :    0.160079
  33 H :    0.129394
  34 H :    0.240441
  35 H :    0.166068
Sum of atomic charges:   -0.0000000

LOEWDIN ATOMIC CHARGES
----------------------
   0 C :    0.107645
   1 C :   -0.017914
   2 O :    0.298683
   3 C :   -0.415912
   4 O :    0.117438
   5 C :   -0.092661
   6 C :   -0.071183
   7 C :    0.125736
   8 N :    0.404296
   9 C :   -0.457936
  10 S :   -0.036435
  11 N :    0.397353
  12 C :   -0.045688
  13 C :   -0.039692
  14 C :    0.021826
  15 C :    0.041154
  16 C :   -0.002509
  17 C :   -0.193508
  18 O :    0.393127
  19 C :    0.027749
  20 H :   -0.028973
  21 H :   -0.022881
  22 H :   -0.026927
  23 H :   -0.026898
  24 H :   -0.028419
  25 H :   -0.008156
  26 H :   -0.020075
  27 H :   -0.010558
  28 H :   -0.058903
  29 H :   -0.063926
  30 H :   -0.004739
  31 H :   -0.024979
  32 H :   -0.020779
  33 H :   -0.036067
  34 H :   -0.154560
  35 H :   -0.024731

  Mayer bond orders larger than 0.100000
B(  0-C ,  1-C ) :   0.9703 B(  0-C , 20-H ) :   0.9780 B(  0-C , 21-H ) :   0.9782
B(  0-C , 22-H ) :   0.9769 B(  1-C ,  2-O ) :   0.9045 B(  1-C , 23-H ) :   0.9712
B(  1-C , 24-H ) :   0.9814 B(  2-O ,  3-C ) :   1.1164 B(  3-C ,  4-O ) :   2.0126
B(  3-C ,  5-C ) :   1.0352 B(  5-C ,  6-C ) :   1.6608 B(  5-C , 12-C ) :   0.9659
B(  6-C ,  7-C ) :   0.9526 B(  6-C ,  8-N ) :   1.1390 B(  7-C , 25-H ) :   0.9688
B(  7-C , 26-H ) :   0.9898 B(  7-C , 27-H ) :   0.9628 B(  8-N ,  9-C ) :   1.1828
B(  8-N , 28-H ) :   0.9495 B(  9-C , 10-S ) :   1.6102 B(  9-C , 11-N ) :   1.3017
B( 11-N , 12-C ) :   0.9916 B( 11-N , 29-H ) :   0.9518 B( 12-C , 13-C ) :   0.9455
B( 12-C , 30-H ) :   0.9988 B( 13-C , 14-C ) :   1.3769 B( 13-C , 19-C ) :   1.3687
B( 14-C , 15-C ) :   1.3947 B( 14-C , 31-H ) :   0.9644 B( 15-C , 16-C ) :   1.3630
B( 15-C , 32-H ) :   0.9712 B( 16-C , 17-C ) :   1.3309 B( 16-C , 33-H ) :   0.9855
B( 17-C , 18-O ) :   1.1088 B( 17-C , 19-C ) :   1.3774 B( 18-O , 34-H ) :   0.9802
B( 19-C , 35-H ) :   0.9583

MP2 TOTAL ENERGY:    -1274.335555280 Eh
FINAL SINGLE POINT ENERGY     -1274.335555279937

DIPOLE MOMENT
-------------
                                X             Y             Z
Electronic contribution:     12.02165       8.58574       8.92006
Nuclear contribution   :    -13.42506      -9.91860      -9.69628
                        -----------------------------------------
Total Dipole Moment    :     -1.40341      -1.33286      -0.77622
                        -----------------------------------------
Magnitude (a.u.)       :      2.08533
Magnitude (Debye)      :      5.30049

Rotational constants in cm-1:     0.010729     0.009188     0.006329
Rotational constants in MHz :   321.653067   275.435718   189.746344

                             ****ORCA TERMINATED NORMALLY****
TOTAL RUN TIME: 0 days 2 hours 1 minutes 2 seconds 993 msec
