                         Program Version 5.0.0 -  RELEASE  -
|  1> ! ri-mp2 cc-pvtz cc-pvtz/c TightSCF NoKeepInts
|  2>
|  3> %scf
|  4>   MaxCore 4096
|  5> end
|  6> *xyz  0  1
|  7>     C       15.8231798   13.1510811   16.1747922
|  8>     C       15.5509545   14.5516493   16.7475965
|  9>     O       16.7305557   15.3429413   16.5236061
| 10>     C       16.6015412   16.6998137   16.4508865
| 11>     O       15.6641623   17.2204506   15.8711775
| 12>     C       17.4927731   17.4188918   17.4271299
| 13>     C       17.4893419   18.7705265   17.5535025
| 14>     C       16.6373889   19.7609602   16.7886674
| 15>     N       18.3702563   19.3942750   18.4420685
| 16>     C       19.3566141   18.7558694   19.1451789
| 17>     S       20.4262510   19.5816912   20.0989448
| 18>     N       19.4170030   17.3921188   19.0135971
| 19>     C       18.4305627   16.5636847   18.2969541
| 20>     C       17.6651869   15.7023908   19.2977244
| 21>     C       17.8913629   14.3144118   19.3603648
| 22>     C       17.1804124   13.5144398   20.2705783
| 23>     C       16.2391726   14.1074814   21.1291745
| 24>     C       16.0173823   15.4904052   21.0752763
| 25>     O       15.1101547   16.0660607   21.9036151
| 26>     C       16.7246905   16.2836194   20.1666649
| 27>     H       14.9484237   12.5037075   16.3105734
| 28>     H       16.6775456   12.6861975   16.6819194
| 29>     H       16.0447650   13.2093696   15.1017757
| 30>     H       14.6835373   14.9795104   16.2264274
| 31>     H       15.3216921   14.4978371   17.8201676
| 32>     H       15.5739557   19.6062217   17.0120290
| 33>     H       16.7665019   19.6283223   15.7069522
| 34>     H       16.8775697   20.8046384   17.0229776
| 35>     H       18.3423573   20.3957486   18.5488932
| 36>     H       20.1329151   16.9462958   19.5726814
| 37>     H       18.9890051   15.8977928   17.6239069
| 38>     H       18.6147493   13.8527260   18.6934800
| 39>     H       17.3606742   12.4414538   20.3095972
| 40>     H       15.6886312   13.4941864   21.8350730
| 41>     H       14.7632175   15.3725265   22.4847116
| 42>     H       16.5425125   17.3527029   20.1453343
| 43> *
| 44>
| 45>                          ****END OF INPUT****

CARTESIAN COORDINATES (ANGSTROEM)
---------------------------------
  C     15.823180   13.151081   16.174792
  C     15.550954   14.551649   16.747597
  O     16.730556   15.342941   16.523606
  C     16.601541   16.699814   16.450886
  O     15.664162   17.220451   15.871177
  C     17.492773   17.418892   17.427130
  C     17.489342   18.770526   17.553503
  C     16.637389   19.760960   16.788667
  N     18.370256   19.394275   18.442069
  C     19.356614   18.755869   19.145179
  S     20.426251   19.581691   20.098945
  N     19.417003   17.392119   19.013597
  C     18.430563   16.563685   18.296954
  C     17.665187   15.702391   19.297724
  C     17.891363   14.314412   19.360365
  C     17.180412   13.514440   20.270578
  C     16.239173   14.107481   21.129175
  C     16.017382   15.490405   21.075276
  O     15.110155   16.066061   21.903615
  C     16.724691   16.283619   20.166665
  H     14.948424   12.503707   16.310573
  H     16.677546   12.686198   16.681919
  H     16.044765   13.209370   15.101776
  H     14.683537   14.979510   16.226427
  H     15.321692   14.497837   17.820168
  H     15.573956   19.606222   17.012029
  H     16.766502   19.628322   15.706952
  H     16.877570   20.804638   17.022978
  H     18.342357   20.395749   18.548893
  H     20.132915   16.946296   19.572681
  H     18.989005   15.897793   17.623907
  H     18.614749   13.852726   18.693480
  H     17.360674   12.441454   20.309597
  H     15.688631   13.494186   21.835073
  H     14.763217   15.372526   22.484712
  H     16.542513   17.352703   20.145334

 Total Charge           Charge          ....    0
 Multiplicity           Mult            ....    1
 Number of Electrons    NEL             ....  154
 Basis Dimension        Dim             ....  828

ORBITAL ENERGIES
----------------

  NO   OCC          E(Eh)            E(eV)
   0   2.0000     -91.889716     -2500.4463
   1   2.0000     -20.599507      -560.5411
   2   2.0000     -20.591549      -560.3245
   3   2.0000     -20.544254      -559.0376
   4   2.0000     -15.629925      -425.3119
   5   2.0000     -15.609214      -424.7483
   6   2.0000     -11.393632      -310.0365
   7   2.0000     -11.384810      -309.7964
   8   2.0000     -11.336401      -308.4792
   9   2.0000     -11.317267      -307.9585
  10   2.0000     -11.310574      -307.7764
  11   2.0000     -11.292811      -307.2930
  12   2.0000     -11.262482      -306.4677
  13   2.0000     -11.259055      -306.3745
  14   2.0000     -11.258581      -306.3616
  15   2.0000     -11.252710      -306.2018
  16   2.0000     -11.246229      -306.0255
  17   2.0000     -11.241347      -305.8926
  18   2.0000     -11.240935      -305.8814
  19   2.0000     -11.227159      -305.5065
  20   2.0000      -8.894773      -242.0391
  21   2.0000      -6.576345      -178.9514
  22   2.0000      -6.574342      -178.8969
  23   2.0000      -6.573753      -178.8809
  24   2.0000      -1.449951       -39.4552
  25   2.0000      -1.419180       -38.6179
  26   2.0000      -1.353640       -36.8344
  27   2.0000      -1.340964       -36.4895
  28   2.0000      -1.239606       -33.7314
  29   2.0000      -1.160401       -31.5761
  30   2.0000      -1.121109       -30.5069
  31   2.0000      -1.044689       -28.4274
  32   2.0000      -1.036998       -28.2182
  33   2.0000      -1.018341       -27.7105
  34   2.0000      -0.996591       -27.1186
  35   2.0000      -0.985122       -26.8065
  36   2.0000      -0.924091       -25.1458
  37   2.0000      -0.883480       -24.0407
  38   2.0000      -0.847981       -23.0747
  39   2.0000      -0.839963       -22.8566
  40   2.0000      -0.836774       -22.7698
  41   2.0000      -0.822163       -22.3722
  42   2.0000      -0.762821       -20.7574
  43   2.0000      -0.734908       -19.9979
  44   2.0000      -0.723954       -19.6998
  45   2.0000      -0.698402       -19.0045
  46   2.0000      -0.688845       -18.7444
  47   2.0000      -0.678707       -18.4686
  48   2.0000      -0.674025       -18.3411
  49   2.0000      -0.656398       -17.8615
  50   2.0000      -0.647518       -17.6199
  51   2.0000      -0.643170       -17.5015
  52   2.0000      -0.633243       -17.2314
  53   2.0000      -0.615220       -16.7410
  54   2.0000      -0.609945       -16.5975
  55   2.0000      -0.602327       -16.3901
  56   2.0000      -0.600024       -16.3275
  57   2.0000      -0.580013       -15.7830
  58   2.0000      -0.571680       -15.5562
  59   2.0000      -0.565761       -15.3951
  60   2.0000      -0.558999       -15.2111
  61   2.0000      -0.540314       -14.7027
  62   2.0000      -0.534446       -14.5430
  63   2.0000      -0.527712       -14.3598
  64   2.0000      -0.523281       -14.2392
  65   2.0000      -0.514872       -14.0104
  66   2.0000      -0.503628       -13.7044
  67   2.0000      -0.497497       -13.5376
  68   2.0000      -0.487821       -13.2743
  69   2.0000      -0.465060       -12.6549
  70   2.0000      -0.457366       -12.4456
  71   2.0000      -0.445672       -12.1273
  72   2.0000      -0.355098        -9.6627
  73   2.0000      -0.352419        -9.5898
  74   2.0000      -0.329382        -8.9629
  75   2.0000      -0.324674        -8.8348
  76   2.0000      -0.317101        -8.6288
  77   0.0000       0.072395         1.9700
  78   0.0000       0.103147         2.8068
  79   0.0000       0.123751         3.3674
  80   0.0000       0.130014         3.5379
  81   0.0000       0.134973         3.6728

MULLIKEN ATOMIC CHARGES
-----------------------
   0 C :   -0.262780
   1 C :    0.006599
   2 O :   -0.374045
   3 C :    0.490165
   4 O :   -0.420837
   5 C :   -0.263933
   6 C :    0.160917
   7 C :   -0.269934
   8 N :   -0.123516
   9 C :    0.212786
  10 S :   -0.439270
  11 N :   -0.206014
  12 C :    0.068040
  13 C :    0.028659
  14 C :   -0.173120
  15 C :   -0.133561
  16 C :   -0.278010
  17 C :    0.309918
  18 O :   -0.355651
  19 C :   -0.250697
  20 H :    0.088691
  21 H :    0.088730
  22 H :    0.101385
  23 H :    0.128090
  24 H :    0.112600
  25 H :    0.132415
  26 H :    0.130510
  27 H :    0.095265
  28 H :    0.197760
  29 H :    0.194963
  30 H :    0.149192
  31 H :    0.151513
  32 H :    0.162460
  33 H :    0.132480
  34 H :    0.241230
  35 H :    0.166998
Sum of atomic charges:   -0.0000000

LOEWDIN ATOMIC CHARGES
----------------------
   0 C :    0.107502
   1 C :   -0.016953
   2 O :    0.300937
   3 C :   -0.415636
   4 O :    0.106227
   5 C :   -0.097208
   6 C :   -0.058875
   7 C :    0.131603
   8 N :    0.406764
   9 C :   -0.456157
  10 S :   -0.034784
  11 N :    0.396199
  12 C :   -0.052348
  13 C :   -0.038214
  14 C :    0.014623
  15 C :    0.039587
  16 C :   -0.002659
  17 C :   -0.190074
  18 O :    0.396286
  19 C :    0.030855
  20 H :   -0.025587
  21 H :   -0.031688
  22 H :   -0.025086
  23 H :   -0.028251
  24 H :   -0.030900
  25 H :   -0.004560
  26 H :   -0.003872
  27 H :   -0.023248
  28 H :   -0.057413
  29 H :   -0.064732
  30 H :   -0.009771
  31 H :   -0.030270
  32 H :   -0.020618
  33 H :   -0.034988
  34 H :   -0.153251
  35 H :   -0.023438

  Mayer bond orders larger than 0.100000
B(  0-C ,  1-C ) :   0.9772 B(  0-C , 20-H ) :   0.9766 B(  0-C , 21-H ) :   0.9792
B(  0-C , 22-H ) :   0.9783 B(  1-C ,  2-O ) :   0.8726 B(  1-C , 23-H ) :   0.9769
B(  1-C , 24-H ) :   0.9668 B(  2-O ,  3-C ) :   1.1309 B(  3-C ,  4-O ) :   2.0005
B(  3-C ,  5-C ) :   1.0650 B(  5-C ,  6-C ) :   1.6505 B(  5-C , 12-C ) :   0.9716
B(  6-C ,  7-C ) :   0.9661 B(  6-C ,  8-N ) :   1.1611 B(  7-C , 25-H ) :   0.9593
B(  7-C , 26-H ) :   0.9610 B(  7-C , 27-H ) :   0.9904 B(  8-N ,  9-C ) :   1.1831
B(  8-N , 28-H ) :   0.9478 B(  9-C , 10-S ) :   1.6073 B(  9-C , 11-N ) :   1.3060
B( 11-N , 12-C ) :   0.9810 B( 11-N , 29-H ) :   0.9519 B( 12-C , 13-C ) :   0.9366
B( 12-C , 30-H ) :   1.0017 B( 13-C , 14-C ) :   1.3590 B( 13-C , 19-C ) :   1.3824
B( 14-C , 15-C ) :   1.3902 B( 14-C , 31-H ) :   0.9731 B( 15-C , 16-C ) :   1.3617
B( 15-C , 32-H ) :   0.9703 B( 16-C , 17-C ) :   1.3302 B( 16-C , 33-H ) :   0.9845
B( 17-C , 18-O ) :   1.1131 B( 17-C , 19-C ) :   1.3723 B( 18-O , 34-H ) :   0.9793
B( 19-C , 35-H ) :   0.9575

MP2 TOTAL ENERGY:    -1274.341258231 Eh
FINAL SINGLE POINT ENERGY     -1274.341258230929

DIPOLE MOMENT
-------------
                                X             Y             Z
Electronic contribution:      9.34651      11.14527       6.82930
Nuclear contribution   :    -10.45312     -12.67691      -6.93025
                        -----------------------------------------
Total Dipole Moment    :     -1.10661      -1.53163      -0.10095
                        -----------------------------------------
Magnitude (a.u.)       :      1.89227
Magnitude (Debye)      :      4.80977

Rotational constants in cm-1:     0.012463     0.008468     0.006301
Rotational constants in MHz :   373.640191   253.873403   188.909861

                             ****ORCA TERMINATED NORMALLY****
TOTAL RUN TIME: 0 days 1 hours 48 minutes 3 seconds 334 msec
