                         Program Version 4.2.0 -  RELEASE  -
|  1> ! ri-mp2 cc-pvtz cc-pvtz/c TightSCF  NoKeepInts
|  2>
|  3> %scf
|  4>   MaxCore 4096
|  5> end
|  6> *xyz  0  1
|  7>     C       14.9313845   15.8340456   17.2241361
|  8>     C       15.7544307   14.8456730   16.3739644
|  9>     O       16.8900324   15.4398349   15.7015570
| 10>     C       18.0349390   15.7903375   16.3675420
| 11>     O       18.9284429   14.9681989   16.4592440
| 12>     C       17.9157737   16.9041662   17.3597327
| 13>     C       17.3107865   18.0823766   17.0700946
| 14>     C       16.6941317   18.5099947   15.7537918
| 15>     N       17.3170246   19.1155972   18.0103294
| 16>     C       18.0470056   19.1102101   19.1700187
| 17>     S       18.0931693   20.4224530   20.1750684
| 18>     N       18.7409153   17.9601660   19.4539972
| 19>     C       18.6302017   16.6947511   18.7012874
| 20>     C       17.9539948   15.6100997   19.5408267
| 21>     C       18.4298879   14.2861065   19.5003015
| 22>     C       17.8121260   13.2756394   20.2555792
| 23>     C       16.7075020   13.5891761   21.0647534
| 24>     C       16.2313870   14.9058063   21.1138486
| 25>     O       15.1602777   15.2116231   21.8882642
| 26>     C       16.8489523   15.9095852   20.3610779
| 27>     H       15.4930612   16.2213930   18.0763339
| 28>     H       14.0487488   15.3244509   17.6296380
| 29>     H       14.5746256   16.6709810   16.6152114
| 30>     H       16.0995892   14.0191209   17.0105657
| 31>     H       15.0908942   14.4138905   15.6136513
| 32>     H       15.6026467   18.5725061   15.8269667
| 33>     H       16.9373286   17.8271270   14.9319326
| 34>     H       17.0642511   19.4979704   15.4520005
| 35>     H       16.8263338   19.9734021   17.8122613
| 36>     H       19.2578759   17.9778660   20.3240239
| 37>     H       19.6532703   16.3554009   18.4816808
| 38>     H       19.2798110   14.0357671   18.8690649
| 39>     H       18.1900004   12.2556603   20.2087754
| 40>     H       16.2263036   12.8113950   21.6484969
| 41>     H       14.9119745   14.4091206   22.3715215
| 42>     H       16.4579196   16.9201073   20.4164598
| 43> *
| 44>
| 45>                          ****END OF INPUT****

CARTESIAN COORDINATES (ANGSTROEM)
---------------------------------
  C     14.931385   15.834046   17.224136
  C     15.754431   14.845673   16.373964
  O     16.890032   15.439835   15.701557
  C     18.034939   15.790337   16.367542
  O     18.928443   14.968199   16.459244
  C     17.915774   16.904166   17.359733
  C     17.310786   18.082377   17.070095
  C     16.694132   18.509995   15.753792
  N     17.317025   19.115597   18.010329
  C     18.047006   19.110210   19.170019
  S     18.093169   20.422453   20.175068
  N     18.740915   17.960166   19.453997
  C     18.630202   16.694751   18.701287
  C     17.953995   15.610100   19.540827
  C     18.429888   14.286107   19.500301
  C     17.812126   13.275639   20.255579
  C     16.707502   13.589176   21.064753
  C     16.231387   14.905806   21.113849
  O     15.160278   15.211623   21.888264
  C     16.848952   15.909585   20.361078
  H     15.493061   16.221393   18.076334
  H     14.048749   15.324451   17.629638
  H     14.574626   16.670981   16.615211
  H     16.099589   14.019121   17.010566
  H     15.090894   14.413891   15.613651
  H     15.602647   18.572506   15.826967
  H     16.937329   17.827127   14.931933
  H     17.064251   19.497970   15.452001
  H     16.826334   19.973402   17.812261
  H     19.257876   17.977866   20.324024
  H     19.653270   16.355401   18.481681
  H     19.279811   14.035767   18.869065
  H     18.190000   12.255660   20.208775
  H     16.226304   12.811395   21.648497
  H     14.911974   14.409121   22.371522
  H     16.457920   16.920107   20.416460

 Total Charge           Charge          ....    0
 Multiplicity           Mult            ....    1
 Number of Electrons    NEL             ....  154
 Basis Dimension        Dim             ....  828

ORBITAL ENERGIES
----------------

  NO   OCC          E(Eh)            E(eV)
   0   2.0000     -91.891084     -2500.4835
   1   2.0000     -20.597930      -560.4982
   2   2.0000     -20.581935      -560.0629
   3   2.0000     -20.555138      -559.3337
   4   2.0000     -15.629605      -425.3032
   5   2.0000     -15.610882      -424.7937
   6   2.0000     -11.395780      -310.0949
   7   2.0000     -11.386998      -309.8560
   8   2.0000     -11.334382      -308.4242
   9   2.0000     -11.314616      -307.8864
  10   2.0000     -11.312860      -307.8386
  11   2.0000     -11.305561      -307.6399
  12   2.0000     -11.263623      -306.4988
  13   2.0000     -11.263101      -306.4846
  14   2.0000     -11.262016      -306.4550
  15   2.0000     -11.254653      -306.2547
  16   2.0000     -11.244226      -305.9709
  17   2.0000     -11.240478      -305.8690
  18   2.0000     -11.236468      -305.7598
  19   2.0000     -11.229560      -305.5719
  20   2.0000      -8.896159      -242.0768
  21   2.0000      -6.577738      -178.9894
  22   2.0000      -6.575724      -178.9345
  23   2.0000      -6.575139      -178.9186
  24   2.0000      -1.446432       -39.3594
  25   2.0000      -1.417751       -38.5790
  26   2.0000      -1.353801       -36.8388
  27   2.0000      -1.341887       -36.5146
  28   2.0000      -1.240445       -33.7542
  29   2.0000      -1.158693       -31.5296
  30   2.0000      -1.123629       -30.5755
  31   2.0000      -1.046294       -28.4711
  32   2.0000      -1.034926       -28.1618
  33   2.0000      -1.016887       -27.6709
  34   2.0000      -1.003487       -27.3063
  35   2.0000      -0.989502       -26.9257
  36   2.0000      -0.926753       -25.2182
  37   2.0000      -0.892128       -24.2760
  38   2.0000      -0.851626       -23.1739
  39   2.0000      -0.841149       -22.8888
  40   2.0000      -0.834899       -22.7188
  41   2.0000      -0.825911       -22.4742
  42   2.0000      -0.751906       -20.4604
  43   2.0000      -0.734905       -19.9978
  44   2.0000      -0.729714       -19.8565
  45   2.0000      -0.696494       -18.9526
  46   2.0000      -0.687618       -18.7110
  47   2.0000      -0.676640       -18.4123
  48   2.0000      -0.674049       -18.3418
  49   2.0000      -0.662465       -18.0266
  50   2.0000      -0.653735       -17.7890
  51   2.0000      -0.646830       -17.6011
  52   2.0000      -0.640600       -17.4316
  53   2.0000      -0.611651       -16.6439
  54   2.0000      -0.606072       -16.4921
  55   2.0000      -0.601998       -16.3812
  56   2.0000      -0.596661       -16.2360
  57   2.0000      -0.593335       -16.1455
  58   2.0000      -0.575603       -15.6630
  59   2.0000      -0.572067       -15.5667
  60   2.0000      -0.563905       -15.3446
  61   2.0000      -0.554791       -15.0966
  62   2.0000      -0.543649       -14.7934
  63   2.0000      -0.527063       -14.3421
  64   2.0000      -0.520680       -14.1684
  65   2.0000      -0.513420       -13.9709
  66   2.0000      -0.501569       -13.6484
  67   2.0000      -0.488994       -13.3062
  68   2.0000      -0.485474       -13.2104
  69   2.0000      -0.466396       -12.6913
  70   2.0000      -0.457341       -12.4449
  71   2.0000      -0.451007       -12.2725
  72   2.0000      -0.356956        -9.7133
  73   2.0000      -0.349354        -9.5064
  74   2.0000      -0.330414        -8.9910
  75   2.0000      -0.322630        -8.7792
  76   2.0000      -0.319228        -8.6866
  77   0.0000       0.074125         2.0171
  78   0.0000       0.104379         2.8403
  79   0.0000       0.118947         3.2367
  80   0.0000       0.129075         3.5123
  81   0.0000       0.131032         3.5656

MULLIKEN ATOMIC CHARGES
-----------------------
   0 C :   -0.335469
   1 C :    0.051934
   2 O :   -0.375117
   3 C :    0.450439
   4 O :   -0.382860
   5 C :   -0.227832
   6 C :    0.164266
   7 C :   -0.313960
   8 N :   -0.133028
   9 C :    0.194189
  10 S :   -0.436438
  11 N :   -0.217506
  12 C :    0.079153
  13 C :    0.031753
  14 C :   -0.209473
  15 C :   -0.136737
  16 C :   -0.277409
  17 C :    0.323904
  18 O :   -0.356861
  19 C :   -0.284014
  20 H :    0.117339
  21 H :    0.125146
  22 H :    0.095552
  23 H :    0.100657
  24 H :    0.116780
  25 H :    0.120151
  26 H :    0.134225
  27 H :    0.129516
  28 H :    0.198220
  29 H :    0.198545
  30 H :    0.164319
  31 H :    0.173968
  32 H :    0.164289
  33 H :    0.131924
  34 H :    0.240869
  35 H :    0.179563
Sum of atomic charges:    0.0000000

LOEWDIN ATOMIC CHARGES
----------------------
   0 C :    0.105914
   1 C :   -0.011781
   2 O :    0.274048
   3 C :   -0.416261
   4 O :    0.134743
   5 C :   -0.088650
   6 C :   -0.079148
   7 C :    0.126552
   8 N :    0.405004
   9 C :   -0.458462
  10 S :   -0.034870
  11 N :    0.397213
  12 C :   -0.043519
  13 C :   -0.042338
  14 C :    0.020399
  15 C :    0.041502
  16 C :   -0.001844
  17 C :   -0.193693
  18 O :    0.394986
  19 C :    0.027573
  20 H :   -0.037195
  21 H :   -0.020701
  22 H :   -0.033791
  23 H :   -0.027046
  24 H :   -0.019746
  25 H :   -0.017985
  26 H :   -0.009523
  27 H :   -0.012910
  28 H :   -0.056256
  29 H :   -0.063661
  30 H :   -0.002675
  31 H :   -0.022902
  32 H :   -0.019266
  33 H :   -0.035105
  34 H :   -0.153551
  35 H :   -0.025057

  Mayer bond orders larger than 0.100000
B(  0-C ,  1-C ) :   0.9612 B(  0-C , 20-H ) :   0.9679 B(  0-C , 21-H ) :   0.9780
B(  0-C , 22-H ) :   0.9783 B(  1-C ,  2-O ) :   0.8975 B(  1-C , 23-H ) :   0.9753
B(  1-C , 24-H ) :   0.9827 B(  2-O ,  3-C ) :   1.1084 B(  3-C ,  4-O ) :   2.0641
B(  3-C ,  5-C ) :   0.9791 B(  5-C ,  6-C ) :   1.6569 B(  5-C , 12-C ) :   0.9542
B(  6-C ,  7-C ) :   0.9546 B(  6-C ,  8-N ) :   1.1291 B(  7-C , 25-H ) :   0.9639
B(  7-C , 26-H ) :   0.9720 B(  7-C , 27-H ) :   0.9749 B(  8-N ,  9-C ) :   1.1879
B(  8-N , 28-H ) :   0.9516 B(  9-C , 10-S ) :   1.6149 B(  9-C , 11-N ) :   1.2900
B( 11-N , 12-C ) :   0.9845 B( 11-N , 29-H ) :   0.9503 B( 12-C , 13-C ) :   0.9488
B( 12-C , 30-H ) :   0.9972 B( 13-C , 14-C ) :   1.3873 B( 13-C , 19-C ) :   1.3399
B( 14-C , 15-C ) :   1.4007 B( 14-C , 31-H ) :   0.9579 B( 15-C , 16-C ) :   1.3595
B( 15-C , 32-H ) :   0.9700 B( 16-C , 17-C ) :   1.3317 B( 16-C , 33-H ) :   0.9846
B( 17-C , 18-O ) :   1.1114 B( 17-C , 19-C ) :   1.3673 B( 18-O , 34-H ) :   0.9798
B( 19-C , 35-H ) :   0.9564

MP2 TOTAL ENERGY:    -1274.322155569 Eh
FINAL SINGLE POINT ENERGY     -1274.322155569412

DIPOLE MOMENT
-------------
                                X             Y             Z
Electronic contribution:      9.57881       6.38648       6.15486
Nuclear contribution   :    -10.89960      -7.58323      -6.67542
                        -----------------------------------------
Total Dipole Moment    :     -1.32079      -1.19674      -0.52057
                        -----------------------------------------
Magnitude (a.u.)       :      1.85679
Magnitude (Debye)      :      4.71959

Rotational constants in cm-1:     0.011759     0.009687     0.006893
Rotational constants in MHz :   352.511959   290.406090   206.650837

                             ****ORCA TERMINATED NORMALLY****
TOTAL RUN TIME: 0 days 1 hours 57 minutes 48 seconds 114 msec
