                         Program Version 5.0.0 -  RELEASE  -
|  1> ! ri-mp2 cc-pvtz cc-pvtz/c TightSCF NoKeepInts
|  2>
|  3> %scf
|  4>   MaxCore 4096
|  5> end
|  6> *xyz  0  1
|  7>     C       14.9451748   14.4799653   16.1996631
|  8>     C       16.3085455   14.1383540   16.8373253
|  9>     O       17.3736049   15.0232156   16.4066117
| 10>     C       17.1799803   16.3667008   16.2347562
| 11>     O       16.5407840   16.7988161   15.2919805
| 12>     C       17.6833834   17.2085022   17.3773977
| 13>     C       17.4352695   18.5416125   17.4586342
| 14>     C       16.5924427   19.3802419   16.5215193
| 15>     N       18.0206822   19.3024683   18.4754304
| 16>     C       18.9978838   18.8508356   19.3218180
| 17>     S       19.7619134   19.8524624   20.3935983
| 18>     N       19.3218465   17.5218170   19.2236094
| 19>     C       18.5672137   16.5288738   18.4381828
| 20>     C       17.7816088   15.6394021   19.3947419
| 21>     C       18.2504306   14.3484698   19.7041643
| 22>     C       17.5339000   13.5196329   20.5837864
| 23>     C       16.3425548   13.9872246   21.1642530
| 24>     C       15.8795740   15.2766164   20.8686187
| 25>     O       14.7313380   15.7322122   21.4291614
| 26>     C       16.5933803   16.0987470   19.9913577
| 27>     H       14.5699667   15.4477172   16.5552801
| 28>     H       14.2013922   13.7175763   16.4604460
| 29>     H       15.0252325   14.5157024   15.1056021
| 30>     H       16.1913789   14.1854011   17.9252121
| 31>     H       16.5803151   13.1058621   16.5832982
| 32>     H       15.5817317   18.9622485   16.4313987
| 33>     H       17.0316408   19.3921835   15.5156411
| 34>     H       16.4896143   20.4206503   16.8513097
| 35>     H       17.8038507   20.2835940   18.5499832
| 36>     H       20.0283922   17.2119699   19.8782439
| 37>     H       19.2977545   15.9025479   17.9066125
| 38>     H       19.1717032   13.9841952   19.2568228
| 39>     H       17.9037029   12.5221048   20.8159468
| 40>     H       15.7867600   13.3513617   21.8458252
| 41>     H       14.4199344   15.0559291   22.0497196
| 42>     H       16.2221190   17.0967857   19.7860477
| 43> *
| 44>
| 45>                          ****END OF INPUT****

CARTESIAN COORDINATES (ANGSTROEM)
---------------------------------
  C     14.945175   14.479965   16.199663
  C     16.308546   14.138354   16.837325
  O     17.373605   15.023216   16.406612
  C     17.179980   16.366701   16.234756
  O     16.540784   16.798816   15.291980
  C     17.683383   17.208502   17.377398
  C     17.435270   18.541612   17.458634
  C     16.592443   19.380242   16.521519
  N     18.020682   19.302468   18.475430
  C     18.997884   18.850836   19.321818
  S     19.761913   19.852462   20.393598
  N     19.321846   17.521817   19.223609
  C     18.567214   16.528874   18.438183
  C     17.781609   15.639402   19.394742
  C     18.250431   14.348470   19.704164
  C     17.533900   13.519633   20.583786
  C     16.342555   13.987225   21.164253
  C     15.879574   15.276616   20.868619
  O     14.731338   15.732212   21.429161
  C     16.593380   16.098747   19.991358
  H     14.569967   15.447717   16.555280
  H     14.201392   13.717576   16.460446
  H     15.025232   14.515702   15.105602
  H     16.191379   14.185401   17.925212
  H     16.580315   13.105862   16.583298
  H     15.581732   18.962248   16.431399
  H     17.031641   19.392184   15.515641
  H     16.489614   20.420650   16.851310
  H     17.803851   20.283594   18.549983
  H     20.028392   17.211970   19.878244
  H     19.297754   15.902548   17.906613
  H     19.171703   13.984195   19.256823
  H     17.903703   12.522105   20.815947
  H     15.786760   13.351362   21.845825
  H     14.419934   15.055929   22.049720
  H     16.222119   17.096786   19.786048

 Total Charge           Charge          ....    0
 Multiplicity           Mult            ....    1
 Number of Electrons    NEL             ....  154
 Basis Dimension        Dim             ....  828

ORBITAL ENERGIES
----------------

  NO   OCC          E(Eh)            E(eV)
   0   2.0000     -91.890409     -2500.4651
   1   2.0000     -20.602488      -560.6222
   2   2.0000     -20.582762      -560.0854
   3   2.0000     -20.545322      -559.0666
   4   2.0000     -15.630895      -425.3383
   5   2.0000     -15.609544      -424.7573
   6   2.0000     -11.393543      -310.0341
   7   2.0000     -11.385125      -309.8050
   8   2.0000     -11.337395      -308.5062
   9   2.0000     -11.320466      -308.0455
  10   2.0000     -11.311350      -307.7975
  11   2.0000     -11.296958      -307.4059
  12   2.0000     -11.264617      -306.5258
  13   2.0000     -11.261625      -306.4444
  14   2.0000     -11.258803      -306.3676
  15   2.0000     -11.253378      -306.2200
  16   2.0000     -11.249185      -306.1059
  17   2.0000     -11.243744      -305.9578
  18   2.0000     -11.243415      -305.9489
  19   2.0000     -11.221240      -305.3455
  20   2.0000      -8.895447      -242.0574
  21   2.0000      -6.577016      -178.9697
  22   2.0000      -6.575018      -178.9153
  23   2.0000      -6.574426      -178.8992
  24   2.0000      -1.441684       -39.2302
  25   2.0000      -1.422145       -38.6985
  26   2.0000      -1.350788       -36.7568
  27   2.0000      -1.342050       -36.5190
  28   2.0000      -1.240565       -33.7575
  29   2.0000      -1.162895       -31.6440
  30   2.0000      -1.121385       -30.5144
  31   2.0000      -1.046508       -28.4769
  32   2.0000      -1.030539       -28.0424
  33   2.0000      -1.021188       -27.7879
  34   2.0000      -0.998080       -27.1591
  35   2.0000      -0.985764       -26.8240
  36   2.0000      -0.925502       -25.1842
  37   2.0000      -0.890497       -24.2317
  38   2.0000      -0.849565       -23.1178
  39   2.0000      -0.843476       -22.9522
  40   2.0000      -0.839073       -22.8323
  41   2.0000      -0.824020       -22.4227
  42   2.0000      -0.747572       -20.3425
  43   2.0000      -0.735298       -20.0085
  44   2.0000      -0.716190       -19.4885
  45   2.0000      -0.701053       -19.0766
  46   2.0000      -0.690899       -18.8003
  47   2.0000      -0.676269       -18.4022
  48   2.0000      -0.666733       -18.1427
  49   2.0000      -0.665214       -18.1014
  50   2.0000      -0.652217       -17.7477
  51   2.0000      -0.647402       -17.6167
  52   2.0000      -0.638808       -17.3828
  53   2.0000      -0.613876       -16.7044
  54   2.0000      -0.612615       -16.6701
  55   2.0000      -0.603814       -16.4306
  56   2.0000      -0.601632       -16.3713
  57   2.0000      -0.582178       -15.8419
  58   2.0000      -0.572464       -15.5775
  59   2.0000      -0.567921       -15.4539
  60   2.0000      -0.553736       -15.0679
  61   2.0000      -0.540271       -14.7015
  62   2.0000      -0.535441       -14.5701
  63   2.0000      -0.530129       -14.4256
  64   2.0000      -0.523663       -14.2496
  65   2.0000      -0.516107       -14.0440
  66   2.0000      -0.505214       -13.7476
  67   2.0000      -0.494737       -13.4625
  68   2.0000      -0.483391       -13.1537
  69   2.0000      -0.463237       -12.6053
  70   2.0000      -0.452254       -12.3065
  71   2.0000      -0.441650       -12.0179
  72   2.0000      -0.357408        -9.7256
  73   2.0000      -0.354984        -9.6596
  74   2.0000      -0.331059        -9.0086
  75   2.0000      -0.327060        -8.8997
  76   2.0000      -0.317612        -8.6427
  77   0.0000       0.070638         1.9222
  78   0.0000       0.100823         2.7435
  79   0.0000       0.121763         3.3133
  80   0.0000       0.128144         3.4870
  81   0.0000       0.132267         3.5992

MULLIKEN ATOMIC CHARGES
-----------------------
   0 C :   -0.285994
   1 C :    0.034555
   2 O :   -0.388983
   3 C :    0.482964
   4 O :   -0.404051
   5 C :   -0.265958
   6 C :    0.159440
   7 C :   -0.269303
   8 N :   -0.124699
   9 C :    0.215301
  10 S :   -0.438444
  11 N :   -0.204576
  12 C :    0.060844
  13 C :    0.030570
  14 C :   -0.182902
  15 C :   -0.130094
  16 C :   -0.275843
  17 C :    0.305289
  18 O :   -0.356369
  19 C :   -0.241076
  20 H :    0.093924
  21 H :    0.099350
  22 H :    0.116861
  23 H :    0.100465
  24 H :    0.108029
  25 H :    0.127824
  26 H :    0.136168
  27 H :    0.094875
  28 H :    0.198333
  29 H :    0.193395
  30 H :    0.151254
  31 H :    0.152656
  32 H :    0.162809
  33 H :    0.133373
  34 H :    0.242133
  35 H :    0.167880
Sum of atomic charges:   -0.0000000

LOEWDIN ATOMIC CHARGES
----------------------
   0 C :    0.104513
   1 C :   -0.013616
   2 O :    0.280505
   3 C :   -0.417270
   4 O :    0.119949
   5 C :   -0.098786
   6 C :   -0.058001
   7 C :    0.131006
   8 N :    0.407208
   9 C :   -0.455768
  10 S :   -0.033697
  11 N :    0.396394
  12 C :   -0.053086
  13 C :   -0.038295
  14 C :    0.013118
  15 C :    0.042135
  16 C :   -0.001535
  17 C :   -0.190425
  18 O :    0.396706
  19 C :    0.029306
  20 H :   -0.029995
  21 H :   -0.026986
  22 H :   -0.022721
  23 H :   -0.034145
  24 H :   -0.023850
  25 H :   -0.005982
  26 H :   -0.002727
  27 H :   -0.023291
  28 H :   -0.057357
  29 H :   -0.065456
  30 H :   -0.007474
  31 H :   -0.029206
  32 H :   -0.019560
  33 H :   -0.034271
  34 H :   -0.152434
  35 H :   -0.024908

  Mayer bond orders larger than 0.100000
B(  0-C ,  1-C ) :   0.9794 B(  0-C , 20-H ) :   0.9738 B(  0-C , 21-H ) :   0.9742
B(  0-C , 22-H ) :   0.9741 B(  1-C ,  2-O ) :   0.8945 B(  1-C , 23-H ) :   0.9667
B(  1-C , 24-H ) :   0.9812 B(  2-O ,  3-C ) :   1.0940 B(  3-C ,  4-O ) :   2.0220
B(  3-C ,  5-C ) :   1.0592 B(  5-C ,  6-C ) :   1.6494 B(  5-C , 12-C ) :   0.9694
B(  6-C ,  7-C ) :   0.9690 B(  6-C ,  8-N ) :   1.1586 B(  7-C , 25-H ) :   0.9634
B(  7-C , 26-H ) :   0.9568 B(  7-C , 27-H ) :   0.9893 B(  8-N ,  9-C ) :   1.1812
B(  8-N , 28-H ) :   0.9478 B(  9-C , 10-S ) :   1.6080 B(  9-C , 11-N ) :   1.3056
B( 11-N , 12-C ) :   0.9670 B( 11-N , 29-H ) :   0.9533 B( 12-C , 13-C ) :   0.9448
B( 12-C , 30-H ) :   1.0014 B( 13-C , 14-C ) :   1.3506 B( 13-C , 19-C ) :   1.3751
B( 14-C , 15-C ) :   1.3935 B( 14-C , 31-H ) :   0.9724 B( 15-C , 16-C ) :   1.3632
B( 15-C , 32-H ) :   0.9703 B( 16-C , 17-C ) :   1.3288 B( 16-C , 33-H ) :   0.9841
B( 17-C , 18-O ) :   1.1150 B( 17-C , 19-C ) :   1.3745 B( 18-O , 34-H ) :   0.9787
B( 19-C , 35-H ) :   0.9572

MP2 TOTAL ENERGY:    -1274.332600651 Eh
FINAL SINGLE POINT ENERGY     -1274.332600650964

DIPOLE MOMENT
-------------
                                X             Y             Z
Electronic contribution:     10.39363       8.91131       6.65360
Nuclear contribution   :    -11.46080     -10.52699      -6.41040
                        -----------------------------------------
Total Dipole Moment    :     -1.06717      -1.61569       0.24320
                        -----------------------------------------
Magnitude (a.u.)       :      1.95152
Magnitude (Debye)      :      4.96037

Rotational constants in cm-1:     0.011979     0.009169     0.006474
Rotational constants in MHz :   359.127860   274.886457   194.094902

                             ****ORCA TERMINATED NORMALLY****
TOTAL RUN TIME: 0 days 1 hours 44 minutes 29 seconds 90 msec
