                         Program Version 4.2.0 -  RELEASE  -
|  1> ! ri-mp2 cc-pvtz cc-pvtz/c TightSCF  NoKeepInts
|  2>
|  3> %scf
|  4>   MaxCore 4096
|  5> end
|  6> *xyz  0  1
|  7>     C       15.1455355   14.3133917   17.0201873
|  8>     C       16.4536305   13.9734708   16.2714074
|  9>     O       17.4633292   14.9835737   16.4815495
| 10>     C       17.1854653   16.3052620   16.2713730
| 11>     O       16.4348693   16.6674411   15.3814236
| 12>     C       17.7257773   17.1997512   17.3534387
| 13>     C       17.5249962   18.5423309   17.3543528
| 14>     C       16.7411062   19.3536653   16.3450464
| 15>     N       18.1102568   19.3375342   18.3444778
| 16>     C       19.0150434   18.8923856   19.2711420
| 17>     S       19.7613078   19.9204067   20.3304016
| 18>     N       19.2765416   17.5459186   19.2718377
| 19>     C       18.5469477   16.5423765   18.4752380
| 20>     C       17.6827496   15.6888525   19.3985792
| 21>     C       17.9755356   14.3253472   19.5901086
| 22>     C       17.1842669   13.5368661   20.4424325
| 23>     C       16.0937547   14.1170248   21.1126725
| 24>     C       15.8032240   15.4759594   20.9295530
| 25>     O       14.7507759   16.0388480   21.5746083
| 26>     C       16.5915021   16.2577017   20.0794840
| 27>     H       15.3369946   14.4785838   18.0863712
| 28>     H       14.4338601   13.4839919   16.9313430
| 29>     H       14.6625170   15.2081059   16.6090680
| 30>     H       16.8334136   13.0048872   16.6206414
| 31>     H       16.2393375   13.8850981   15.1978424
| 32>     H       17.1552255   19.2207098   15.3374353
| 33>     H       16.7421523   20.4278872   16.5637155
| 34>     H       15.6950110   19.0229551   16.3146273
| 35>     H       17.9335237   20.3293781   18.3544954
| 36>     H       19.9228366   17.2423596   19.9887577
| 37>     H       19.2966064   15.8923046   18.0025333
| 38>     H       18.8163846   13.8737095   19.0704601
| 39>     H       17.4177926   12.4828326   20.5825333
| 40>     H       15.4802610   13.5125124   21.7726616
| 41>     H       14.3602853   15.3595937   22.1447426
| 42>     H       16.3541822   17.3089826   19.9574581
| 43> *
| 44>
| 45>                          ****END OF INPUT****

CARTESIAN COORDINATES (ANGSTROEM)
---------------------------------
  C     15.145535   14.313392   17.020187
  C     16.453630   13.973471   16.271407
  O     17.463329   14.983574   16.481549
  C     17.185465   16.305262   16.271373
  O     16.434869   16.667441   15.381424
  C     17.725777   17.199751   17.353439
  C     17.524996   18.542331   17.354353
  C     16.741106   19.353665   16.345046
  N     18.110257   19.337534   18.344478
  C     19.015043   18.892386   19.271142
  S     19.761308   19.920407   20.330402
  N     19.276542   17.545919   19.271838
  C     18.546948   16.542376   18.475238
  C     17.682750   15.688852   19.398579
  C     17.975536   14.325347   19.590109
  C     17.184267   13.536866   20.442432
  C     16.093755   14.117025   21.112672
  C     15.803224   15.475959   20.929553
  O     14.750776   16.038848   21.574608
  C     16.591502   16.257702   20.079484
  H     15.336995   14.478584   18.086371
  H     14.433860   13.483992   16.931343
  H     14.662517   15.208106   16.609068
  H     16.833414   13.004887   16.620641
  H     16.239338   13.885098   15.197842
  H     17.155226   19.220710   15.337435
  H     16.742152   20.427887   16.563716
  H     15.695011   19.022955   16.314627
  H     17.933524   20.329378   18.354495
  H     19.922837   17.242360   19.988758
  H     19.296606   15.892305   18.002533
  H     18.816385   13.873709   19.070460
  H     17.417793   12.482833   20.582533
  H     15.480261   13.512512   21.772662
  H     14.360285   15.359594   22.144743
  H     16.354182   17.308983   19.957458

 Total Charge           Charge          ....    0
 Multiplicity           Mult            ....    1
 Number of Electrons    NEL             ....  154
 Basis Dimension        Dim             ....  828

ORBITAL ENERGIES
----------------

  NO   OCC          E(Eh)            E(eV)
   0   2.0000     -91.889779     -2500.4480
   1   2.0000     -20.598680      -560.5186
   2   2.0000     -20.592723      -560.3565
   3   2.0000     -20.542467      -558.9890
   4   2.0000     -15.630137      -425.3177
   5   2.0000     -15.608907      -424.7399
   6   2.0000     -11.394430      -310.0582
   7   2.0000     -11.384704      -309.7936
   8   2.0000     -11.336837      -308.4910
   9   2.0000     -11.316229      -307.9303
  10   2.0000     -11.309970      -307.7599
  11   2.0000     -11.298078      -307.4363
  12   2.0000     -11.261547      -306.4423
  13   2.0000     -11.259357      -306.3827
  14   2.0000     -11.257775      -306.3396
  15   2.0000     -11.252641      -306.1999
  16   2.0000     -11.245584      -306.0079
  17   2.0000     -11.240523      -305.8702
  18   2.0000     -11.240272      -305.8634
  19   2.0000     -11.220798      -305.3334
  20   2.0000      -8.894824      -242.0405
  21   2.0000      -6.576394      -178.9528
  22   2.0000      -6.574394      -178.8984
  23   2.0000      -6.573803      -178.8823
  24   2.0000      -1.447605       -39.3913
  25   2.0000      -1.418402       -38.5967
  26   2.0000      -1.352136       -36.7935
  27   2.0000      -1.341047       -36.4918
  28   2.0000      -1.239419       -33.7263
  29   2.0000      -1.159676       -31.5564
  30   2.0000      -1.121088       -30.5063
  31   2.0000      -1.044081       -28.4109
  32   2.0000      -1.032488       -28.0954
  33   2.0000      -1.017476       -27.6869
  34   2.0000      -0.996545       -27.1174
  35   2.0000      -0.985275       -26.8107
  36   2.0000      -0.923769       -25.1370
  37   2.0000      -0.895906       -24.3788
  38   2.0000      -0.847840       -23.0709
  39   2.0000      -0.840150       -22.8616
  40   2.0000      -0.836194       -22.7540
  41   2.0000      -0.815931       -22.2026
  42   2.0000      -0.749418       -20.3927
  43   2.0000      -0.733861       -19.9694
  44   2.0000      -0.723010       -19.6741
  45   2.0000      -0.697840       -18.9892
  46   2.0000      -0.690163       -18.7803
  47   2.0000      -0.675928       -18.3929
  48   2.0000      -0.670112       -18.2347
  49   2.0000      -0.662935       -18.0394
  50   2.0000      -0.649726       -17.6799
  51   2.0000      -0.642082       -17.4719
  52   2.0000      -0.634521       -17.2662
  53   2.0000      -0.616984       -16.7890
  54   2.0000      -0.609022       -16.5723
  55   2.0000      -0.601911       -16.3788
  56   2.0000      -0.599912       -16.3244
  57   2.0000      -0.579382       -15.7658
  58   2.0000      -0.571187       -15.5428
  59   2.0000      -0.566403       -15.4126
  60   2.0000      -0.552997       -15.0478
  61   2.0000      -0.544100       -14.8057
  62   2.0000      -0.533316       -14.5123
  63   2.0000      -0.528621       -14.3845
  64   2.0000      -0.526625       -14.3302
  65   2.0000      -0.514322       -13.9954
  66   2.0000      -0.502648       -13.6778
  67   2.0000      -0.501224       -13.6390
  68   2.0000      -0.479101       -13.0370
  69   2.0000      -0.465294       -12.6613
  70   2.0000      -0.453391       -12.3374
  71   2.0000      -0.444373       -12.0920
  72   2.0000      -0.355570        -9.6755
  73   2.0000      -0.351561        -9.5665
  74   2.0000      -0.329228        -8.9587
  75   2.0000      -0.324246        -8.8232
  76   2.0000      -0.316915        -8.6237
  77   0.0000       0.072848         1.9823
  78   0.0000       0.104880         2.8539
  79   0.0000       0.123869         3.3707
  80   0.0000       0.130740         3.5576
  81   0.0000       0.136759         3.7214

MULLIKEN ATOMIC CHARGES
-----------------------
   0 C :   -0.325530
   1 C :    0.029542
   2 O :   -0.379202
   3 C :    0.477326
   4 O :   -0.430174
   5 C :   -0.229081
   6 C :    0.152616
   7 C :   -0.271360
   8 N :   -0.122842
   9 C :    0.209168
  10 S :   -0.437772
  11 N :   -0.202147
  12 C :    0.052431
  13 C :    0.037152
  14 C :   -0.175509
  15 C :   -0.136181
  16 C :   -0.271823
  17 C :    0.302213
  18 O :   -0.359018
  19 C :   -0.245544
  20 H :    0.111294
  21 H :    0.103925
  22 H :    0.118880
  23 H :    0.113302
  24 H :    0.120019
  25 H :    0.132605
  26 H :    0.095297
  27 H :    0.131317
  28 H :    0.198150
  29 H :    0.193638
  30 H :    0.152104
  31 H :    0.154912
  32 H :    0.161280
  33 H :    0.131698
  34 H :    0.240960
  35 H :    0.166355
Sum of atomic charges:   -0.0000000

LOEWDIN ATOMIC CHARGES
----------------------
   0 C :    0.106144
   1 C :   -0.015246
   2 O :    0.294904
   3 C :   -0.416412
   4 O :    0.102068
   5 C :   -0.095580
   6 C :   -0.057867
   7 C :    0.131679
   8 N :    0.406772
   9 C :   -0.456999
  10 S :   -0.033971
  11 N :    0.396724
  12 C :   -0.052081
  13 C :   -0.039815
  14 C :    0.014950
  15 C :    0.039207
  16 C :   -0.002137
  17 C :   -0.191120
  18 O :    0.396432
  19 C :    0.031409
  20 H :   -0.027402
  21 H :   -0.025941
  22 H :   -0.027000
  23 H :   -0.025024
  24 H :   -0.028273
  25 H :   -0.003398
  26 H :   -0.023334
  27 H :   -0.005007
  28 H :   -0.057465
  29 H :   -0.064695
  30 H :   -0.009065
  31 H :   -0.029271
  32 H :   -0.020882
  33 H :   -0.035141
  34 H :   -0.153410
  35 H :   -0.023754

  Mayer bond orders larger than 0.100000
B(  0-C ,  1-C ) :   0.9559 B(  0-C , 20-H ) :   0.9689 B(  0-C , 21-H ) :   0.9783
B(  0-C , 22-H ) :   0.9739 B(  1-C ,  2-O ) :   0.8858 B(  1-C , 23-H ) :   0.9827
B(  1-C , 24-H ) :   0.9855 B(  2-O ,  3-C ) :   1.1359 B(  3-C ,  4-O ) :   1.9816
B(  3-C ,  5-C ) :   1.0647 B(  5-C ,  6-C ) :   1.6533 B(  5-C , 12-C ) :   0.9708
B(  6-C ,  7-C ) :   0.9669 B(  6-C ,  8-N ) :   1.1608 B(  7-C , 25-H ) :   0.9594
B(  7-C , 26-H ) :   0.9901 B(  7-C , 27-H ) :   0.9612 B(  8-N ,  9-C ) :   1.1810
B(  8-N , 28-H ) :   0.9478 B(  9-C , 10-S ) :   1.6109 B(  9-C , 11-N ) :   1.3040
B( 11-N , 12-C ) :   0.9847 B( 11-N , 29-H ) :   0.9526 B( 12-C , 13-C ) :   0.9352
B( 12-C , 30-H ) :   1.0024 B( 13-C , 14-C ) :   1.3601 B( 13-C , 19-C ) :   1.3847
B( 14-C , 15-C ) :   1.3866 B( 14-C , 31-H ) :   0.9702 B( 15-C , 16-C ) :   1.3615
B( 15-C , 32-H ) :   0.9713 B( 16-C , 17-C ) :   1.3320 B( 16-C , 33-H ) :   0.9848
B( 17-C , 18-O ) :   1.1124 B( 17-C , 19-C ) :   1.3736 B( 18-O , 34-H ) :   0.9795
B( 19-C , 35-H ) :   0.9572

MP2 TOTAL ENERGY:    -1274.345379374 Eh
FINAL SINGLE POINT ENERGY     -1274.345379373929

DIPOLE MOMENT
-------------
                                X             Y             Z
Electronic contribution:      9.90815       9.57224       6.20047
Nuclear contribution   :    -10.90119     -11.26523      -6.36832
                        -----------------------------------------
Total Dipole Moment    :     -0.99304      -1.69299      -0.16785
                        -----------------------------------------
Magnitude (a.u.)       :      1.96990
Magnitude (Debye)      :      5.00709

Rotational constants in cm-1:     0.012379     0.009060     0.006484
Rotational constants in MHz :   371.101546   271.607496   194.389074

                             ****ORCA TERMINATED NORMALLY****
TOTAL RUN TIME: 0 days 1 hours 44 minutes 35 seconds 78 msec
