                         Program Version 4.2.0 -  RELEASE  -
|  1> ! ri-mp2 cc-pvtz cc-pvtz/c TightSCF  NoKeepInts
|  2>
|  3> %scf
|  4>   MaxCore 4096
|  5> end
|  6> *xyz  0  1
|  7>     C       14.5828593   14.4205342   16.8267770
|  8>     C       15.5945466   15.5773685   16.8209169
|  9>     O       16.8601699   15.0254744   16.4130542
| 10>     C       18.0752295   15.6424850   16.5819799
| 11>     O       19.0929828   14.9827060   16.4832744
| 12>     C       18.0630460   16.8845189   17.4106532
| 13>     C       17.5657506   18.0581008   16.9583177
| 14>     C       16.9919609   18.3352877   15.5856688
| 15>     N       17.6324345   19.1971801   17.7632427
| 16>     C       18.2632858   19.2561843   18.9791389
| 17>     S       18.3422805   20.6608829   19.8476072
| 18>     N       18.8221854   18.0899999   19.4429915
| 19>     C       18.7162079   16.7709926   18.7869522
| 20>     C       17.9609226   15.7684780   19.6549818
| 21>     C       18.4011078   14.4345244   19.7334032
| 22>     C       17.6970890   13.4911198   20.4998428
| 23>     C       16.5392290   13.8826650   21.1928043
| 24>     C       16.0932839   15.2085110   21.1127184
| 25>     O       14.9671481   15.5868439   21.7677647
| 26>     C       16.7962129   16.1461828   20.3495137
| 27>     H       14.8996376   13.6380638   17.5282489
| 28>     H       14.4974030   13.9748249   15.8278475
| 29>     H       13.5913498   14.7751274   17.1332829
| 30>     H       15.2604232   16.3559170   16.1258544
| 31>     H       15.6503561   15.9958823   17.8337908
| 32>     H       17.0744973   17.4713484   14.9146692
| 33>     H       17.5293330   19.1608504   15.1013261
| 34>     H       15.9330106   18.6147036   15.6474220
| 35>     H       17.2445358   20.0676629   17.4344225
| 36>     H       19.2642862   18.1599514   20.3510173
| 37>     H       19.7376210   16.3899528   18.6385661
| 38>     H       19.2848666   14.1230567   19.1801504
| 39>     H       18.0460628   12.4608661   20.5463933
| 40>     H       15.9904168   13.1555593   21.7821827
| 41>     H       14.6575431   14.8228204   22.2776549
| 42>     H       16.4277240   17.1653721   20.2995676
| 43> *
| 44>
| 45>                          ****END OF INPUT****

CARTESIAN COORDINATES (ANGSTROEM)
---------------------------------
  C     14.582859   14.420534   16.826777
  C     15.594547   15.577369   16.820917
  O     16.860170   15.025474   16.413054
  C     18.075229   15.642485   16.581980
  O     19.092983   14.982706   16.483274
  C     18.063046   16.884519   17.410653
  C     17.565751   18.058101   16.958318
  C     16.991961   18.335288   15.585669
  N     17.632434   19.197180   17.763243
  C     18.263286   19.256184   18.979139
  S     18.342280   20.660883   19.847607
  N     18.822185   18.090000   19.442991
  C     18.716208   16.770993   18.786952
  C     17.960923   15.768478   19.654982
  C     18.401108   14.434524   19.733403
  C     17.697089   13.491120   20.499843
  C     16.539229   13.882665   21.192804
  C     16.093284   15.208511   21.112718
  O     14.967148   15.586844   21.767765
  C     16.796213   16.146183   20.349514
  H     14.899638   13.638064   17.528249
  H     14.497403   13.974825   15.827848
  H     13.591350   14.775127   17.133283
  H     15.260423   16.355917   16.125854
  H     15.650356   15.995882   17.833791
  H     17.074497   17.471348   14.914669
  H     17.529333   19.160850   15.101326
  H     15.933011   18.614704   15.647422
  H     17.244536   20.067663   17.434423
  H     19.264286   18.159951   20.351017
  H     19.737621   16.389953   18.638566
  H     19.284867   14.123057   19.180150
  H     18.046063   12.460866   20.546393
  H     15.990417   13.155559   21.782183
  H     14.657543   14.822820   22.277655
  H     16.427724   17.165372   20.299568

 Total Charge           Charge          ....    0
 Multiplicity           Mult            ....    1
 Number of Electrons    NEL             ....  154
 Basis Dimension        Dim             ....  828

ORBITAL ENERGIES
----------------

  NO   OCC          E(Eh)            E(eV)
   0   2.0000     -91.890034     -2500.4549
   1   2.0000     -20.602129      -560.6124
   2   2.0000     -20.599983      -560.5540
   3   2.0000     -20.550256      -559.2009
   4   2.0000     -15.626623      -425.2220
   5   2.0000     -15.611923      -424.8220
   6   2.0000     -11.397572      -310.1437
   7   2.0000     -11.386936      -309.8543
   8   2.0000     -11.328559      -308.2658
   9   2.0000     -11.316898      -307.9484
  10   2.0000     -11.315694      -307.9157
  11   2.0000     -11.302786      -307.5644
  12   2.0000     -11.270665      -306.6904
  13   2.0000     -11.265067      -306.5381
  14   2.0000     -11.263932      -306.5072
  15   2.0000     -11.256744      -306.3116
  16   2.0000     -11.245996      -306.0191
  17   2.0000     -11.242359      -305.9201
  18   2.0000     -11.239027      -305.8295
  19   2.0000     -11.231695      -305.6300
  20   2.0000      -8.895154      -242.0494
  21   2.0000      -6.576743      -178.9623
  22   2.0000      -6.574715      -178.9071
  23   2.0000      -6.574142      -178.8915
  24   2.0000      -1.449148       -39.4333
  25   2.0000      -1.419795       -38.6346
  26   2.0000      -1.360030       -37.0083
  27   2.0000      -1.340168       -36.4678
  28   2.0000      -1.240087       -33.7445
  29   2.0000      -1.161461       -31.6050
  30   2.0000      -1.125871       -30.6365
  31   2.0000      -1.049376       -28.5550
  32   2.0000      -1.040088       -28.3022
  33   2.0000      -1.019127       -27.7319
  34   2.0000      -1.005527       -27.3618
  35   2.0000      -0.989551       -26.9271
  36   2.0000      -0.928208       -25.2578
  37   2.0000      -0.880545       -23.9609
  38   2.0000      -0.856052       -23.2943
  39   2.0000      -0.842058       -22.9136
  40   2.0000      -0.837255       -22.7829
  41   2.0000      -0.836725       -22.7685
  42   2.0000      -0.756928       -20.5971
  43   2.0000      -0.740119       -20.1397
  44   2.0000      -0.731714       -19.9110
  45   2.0000      -0.698028       -18.9943
  46   2.0000      -0.688642       -18.7389
  47   2.0000      -0.681700       -18.5500
  48   2.0000      -0.677530       -18.4365
  49   2.0000      -0.661565       -18.0021
  50   2.0000      -0.658430       -17.9168
  51   2.0000      -0.650648       -17.7050
  52   2.0000      -0.640020       -17.4158
  53   2.0000      -0.612354       -16.6630
  54   2.0000      -0.608125       -16.5479
  55   2.0000      -0.603702       -16.4276
  56   2.0000      -0.596113       -16.2211
  57   2.0000      -0.583223       -15.8703
  58   2.0000      -0.577505       -15.7147
  59   2.0000      -0.571799       -15.5594
  60   2.0000      -0.563888       -15.3442
  61   2.0000      -0.557290       -15.1646
  62   2.0000      -0.552499       -15.0343
  63   2.0000      -0.527452       -14.3527
  64   2.0000      -0.518021       -14.0961
  65   2.0000      -0.515847       -14.0369
  66   2.0000      -0.505662       -13.7598
  67   2.0000      -0.502483       -13.6733
  68   2.0000      -0.488337       -13.2883
  69   2.0000      -0.470541       -12.8041
  70   2.0000      -0.453517       -12.3408
  71   2.0000      -0.451000       -12.2723
  72   2.0000      -0.357057        -9.7160
  73   2.0000      -0.351773        -9.5722
  74   2.0000      -0.329733        -8.9725
  75   2.0000      -0.324526        -8.8308
  76   2.0000      -0.318625        -8.6702
  77   0.0000       0.086691         2.3590
  78   0.0000       0.104248         2.8367
  79   0.0000       0.111867         3.0440
  80   0.0000       0.128075         3.4851
  81   0.0000       0.131994         3.5917

MULLIKEN ATOMIC CHARGES
-----------------------
   0 C :   -0.259541
   1 C :    0.014075
   2 O :   -0.302712
   3 C :    0.394770
   4 O :   -0.381764
   5 C :   -0.194753
   6 C :    0.152260
   7 C :   -0.332825
   8 N :   -0.139769
   9 C :    0.205719
  10 S :   -0.441161
  11 N :   -0.218677
  12 C :    0.077975
  13 C :    0.029985
  14 C :   -0.196863
  15 C :   -0.130878
  16 C :   -0.275998
  17 C :    0.324096
  18 O :   -0.357376
  19 C :   -0.297332
  20 H :    0.108030
  21 H :    0.102498
  22 H :    0.088002
  23 H :    0.089288
  24 H :    0.106474
  25 H :    0.124501
  26 H :    0.141973
  27 H :    0.121113
  28 H :    0.196178
  29 H :    0.199732
  30 H :    0.165556
  31 H :    0.168156
  32 H :    0.164004
  33 H :    0.132482
  34 H :    0.241639
  35 H :    0.181141
Sum of atomic charges:   -0.0000000

LOEWDIN ATOMIC CHARGES
----------------------
   0 C :    0.112734
   1 C :   -0.025657
   2 O :    0.311388
   3 C :   -0.417013
   4 O :    0.124092
   5 C :   -0.080996
   6 C :   -0.103453
   7 C :    0.122700
   8 N :    0.401138
   9 C :   -0.455830
  10 S :   -0.038022
  11 N :    0.397305
  12 C :   -0.043601
  13 C :   -0.042967
  14 C :    0.023703
  15 C :    0.046172
  16 C :   -0.000056
  17 C :   -0.193948
  18 O :    0.394737
  19 C :    0.026136
  20 H :   -0.022210
  21 H :   -0.025869
  22 H :   -0.025156
  23 H :   -0.038547
  24 H :   -0.034968
  25 H :   -0.008886
  26 H :   -0.009268
  27 H :   -0.017589
  28 H :   -0.057946
  29 H :   -0.063624
  30 H :   -0.002096
  31 H :   -0.021621
  32 H :   -0.018307
  33 H :   -0.034654
  34 H :   -0.152919
  35 H :   -0.024903

  Mayer bond orders larger than 0.100000
B(  0-C ,  1-C ) :   0.9852 B(  0-C , 20-H ) :   0.9783 B(  0-C , 21-H ) :   0.9794
B(  0-C , 22-H ) :   0.9770 B(  1-C ,  2-O ) :   0.9142 B(  1-C , 23-H ) :   0.9734
B(  1-C , 24-H ) :   0.9571 B(  2-O ,  3-C ) :   1.1845 B(  3-C ,  4-O ) :   2.0914
B(  3-C ,  5-C ) :   0.9191 B(  5-C ,  6-C ) :   1.6846 B(  5-C , 12-C ) :   0.9571
B(  6-C ,  7-C ) :   0.9442 B(  6-C ,  8-N ) :   1.1166 B(  7-C , 25-H ) :   0.9815
B(  7-C , 26-H ) :   0.9679 B(  7-C , 27-H ) :   0.9669 B(  8-N ,  9-C ) :   1.1966
B(  8-N , 28-H ) :   0.9526 B(  9-C , 10-S ) :   1.6104 B(  9-C , 11-N ) :   1.2866
B( 11-N , 12-C ) :   0.9953 B( 11-N , 29-H ) :   0.9484 B( 12-C , 13-C ) :   0.9437
B( 12-C , 30-H ) :   0.9971 B( 13-C , 14-C ) :   1.3886 B( 13-C , 19-C ) :   1.3395
B( 14-C , 15-C ) :   1.3978 B( 14-C , 31-H ) :   0.9611 B( 15-C , 16-C ) :   1.3627
B( 15-C , 32-H ) :   0.9698 B( 16-C , 17-C ) :   1.3302 B( 16-C , 33-H ) :   0.9843
B( 17-C , 18-O ) :   1.1102 B( 17-C , 19-C ) :   1.3631 B( 18-O , 34-H ) :   0.9793
B( 19-C , 35-H ) :   0.9569

MP2 TOTAL ENERGY:    -1274.332267461 Eh
FINAL SINGLE POINT ENERGY     -1274.332267460595

DIPOLE MOMENT
-------------
                                X             Y             Z
Electronic contribution:     10.60072       8.27614       6.95437
Nuclear contribution   :    -12.13205      -9.28709      -7.42227
                        -----------------------------------------
Total Dipole Moment    :     -1.53133      -1.01095      -0.46790
                        -----------------------------------------
Magnitude (a.u.)       :      1.89365
Magnitude (Debye)      :      4.81328

Rotational constants in cm-1:     0.012112     0.009041     0.006788
Rotational constants in MHz :   363.094216   271.031088   203.497689

                             ****ORCA TERMINATED NORMALLY****
TOTAL RUN TIME: 0 days 1 hours 49 minutes 11 seconds 358 msec
