                         Program Version 5.0.0 -  RELEASE  -
|  1> ! ri-mp2 cc-pvtz cc-pvtz/c TightSCF NoKeepInts
|  2>
|  3> %scf
|  4>   MaxCore 4096
|  5> end
|  6> *xyz  0  1
|  7>     C       15.0557363   14.8488446   16.6853203
|  8>     C       16.4429713   14.1723871   16.7615155
|  9>     O       17.4833370   14.9691850   16.1433299
| 10>     C       17.3991848   16.3295552   16.0290993
| 11>     O       16.9516230   16.8171522   15.0072278
| 12>     C       17.6988651   17.1177467   17.2781116
| 13>     C       17.3601235   18.4283438   17.3972623
| 14>     C       16.5376092   19.2594995   16.4360834
| 15>     N       17.8343149   19.1758370   18.4804290
| 16>     C       18.8450825   18.7695851   19.3116953
| 17>     S       19.5305011   19.7837109   20.4240960
| 18>     N       19.2766379   17.4768305   19.1522842
| 19>     C       18.5513583   16.4556427   18.3756250
| 20>     C       17.7569634   15.5969457   19.3532047
| 21>     C       18.2986684   14.3824743   19.8164570
| 22>     C       17.5833110   13.5778251   20.7191120
| 23>     C       16.3194217   13.9940510   21.1704574
| 24>     C       15.7846153   15.2107007   20.7263110
| 25>     O       14.5663840   15.6182388   21.1621205
| 26>     C       16.4981303   16.0094987   19.8277624
| 27>     H       15.0214122   15.7672561   17.2835102
| 28>     H       14.2837479   14.1723681   17.0715510
| 29>     H       14.7988613   15.0959418   15.6470244
| 30>     H       16.6788861   13.9532888   17.8053097
| 31>     H       16.3943621   13.2057475   16.2438328
| 32>     H       15.6066985   18.7416026   16.1725772
| 33>     H       17.0917838   19.4288255   15.5037370
| 34>     H       16.2626645   20.2389138   16.8446694
| 35>     H       17.5427035   20.1340996   18.5899165
| 36>     H       20.0126477   17.1980954   19.7880665
| 37>     H       19.2952984   15.8159159   17.8795854
| 38>     H       19.2771172   14.0582206   19.4713528
| 39>     H       18.0097609   12.6389045   21.0689356
| 40>     H       15.7636753   13.3763801   21.8686237
| 41>     H       14.2646931   14.9795529   21.8260337
| 42>     H       16.0678486   16.9528321   19.5117697
| 43> *
| 44>
| 45>                          ****END OF INPUT****

CARTESIAN COORDINATES (ANGSTROEM)
---------------------------------
  C     15.055736   14.848845   16.685320
  C     16.442971   14.172387   16.761516
  O     17.483337   14.969185   16.143330
  C     17.399185   16.329555   16.029099
  O     16.951623   16.817152   15.007228
  C     17.698865   17.117747   17.278112
  C     17.360123   18.428344   17.397262
  C     16.537609   19.259500   16.436083
  N     17.834315   19.175837   18.480429
  C     18.845083   18.769585   19.311695
  S     19.530501   19.783711   20.424096
  N     19.276638   17.476830   19.152284
  C     18.551358   16.455643   18.375625
  C     17.756963   15.596946   19.353205
  C     18.298668   14.382474   19.816457
  C     17.583311   13.577825   20.719112
  C     16.319422   13.994051   21.170457
  C     15.784615   15.210701   20.726311
  O     14.566384   15.618239   21.162121
  C     16.498130   16.009499   19.827762
  H     15.021412   15.767256   17.283510
  H     14.283748   14.172368   17.071551
  H     14.798861   15.095942   15.647024
  H     16.678886   13.953289   17.805310
  H     16.394362   13.205747   16.243833
  H     15.606698   18.741603   16.172577
  H     17.091784   19.428825   15.503737
  H     16.262664   20.238914   16.844669
  H     17.542703   20.134100   18.589917
  H     20.012648   17.198095   19.788066
  H     19.295298   15.815916   17.879585
  H     19.277117   14.058221   19.471353
  H     18.009761   12.638905   21.068936
  H     15.763675   13.376380   21.868624
  H     14.264693   14.979553   21.826034
  H     16.067849   16.952832   19.511770

 Total Charge           Charge          ....    0
 Multiplicity           Mult            ....    1
 Number of Electrons    NEL             ....  154
 Basis Dimension        Dim             ....  828

ORBITAL ENERGIES
----------------

  NO   OCC          E(Eh)            E(eV)
   0   2.0000     -91.891560     -2500.4965
   1   2.0000     -20.604417      -560.6747
   2   2.0000     -20.579795      -560.0047
   3   2.0000     -20.545986      -559.0847
   4   2.0000     -15.632095      -425.3709
   5   2.0000     -15.610394      -424.7804
   6   2.0000     -11.392563      -310.0074
   7   2.0000     -11.385918      -309.8266
   8   2.0000     -11.338050      -308.5240
   9   2.0000     -11.322124      -308.0907
  10   2.0000     -11.313963      -307.8686
  11   2.0000     -11.296972      -307.4062
  12   2.0000     -11.267020      -306.5912
  13   2.0000     -11.263592      -306.4979
  14   2.0000     -11.259611      -306.3896
  15   2.0000     -11.254059      -306.2385
  16   2.0000     -11.250686      -306.1467
  17   2.0000     -11.245501      -306.0056
  18   2.0000     -11.245140      -305.9958
  19   2.0000     -11.226854      -305.4982
  20   2.0000      -8.896559      -242.0877
  21   2.0000      -6.578119      -178.9997
  22   2.0000      -6.576132      -178.9456
  23   2.0000      -6.575532      -178.9293
  24   2.0000      -1.441008       -39.2118
  25   2.0000      -1.423998       -38.7490
  26   2.0000      -1.349369       -36.7182
  27   2.0000      -1.343389       -36.5555
  28   2.0000      -1.241841       -33.7922
  29   2.0000      -1.164632       -31.6912
  30   2.0000      -1.122070       -30.5331
  31   2.0000      -1.048105       -28.5204
  32   2.0000      -1.030115       -28.0308
  33   2.0000      -1.023181       -27.8422
  34   2.0000      -1.000676       -27.2298
  35   2.0000      -0.987168       -26.8622
  36   2.0000      -0.927012       -25.2253
  37   2.0000      -0.894174       -24.3317
  38   2.0000      -0.850522       -23.1439
  39   2.0000      -0.846503       -23.0345
  40   2.0000      -0.840634       -22.8748
  41   2.0000      -0.824859       -22.4456
  42   2.0000      -0.747521       -20.3411
  43   2.0000      -0.737131       -20.0583
  44   2.0000      -0.715303       -19.4644
  45   2.0000      -0.703014       -19.1300
  46   2.0000      -0.693310       -18.8659
  47   2.0000      -0.674653       -18.3582
  48   2.0000      -0.671052       -18.2603
  49   2.0000      -0.661819       -18.0090
  50   2.0000      -0.655164       -17.8279
  51   2.0000      -0.649498       -17.6737
  52   2.0000      -0.638207       -17.3665
  53   2.0000      -0.625335       -17.0162
  54   2.0000      -0.615106       -16.7379
  55   2.0000      -0.605913       -16.4877
  56   2.0000      -0.602379       -16.3916
  57   2.0000      -0.584250       -15.8983
  58   2.0000      -0.573599       -15.6084
  59   2.0000      -0.567285       -15.4366
  60   2.0000      -0.544495       -14.8165
  61   2.0000      -0.541418       -14.7327
  62   2.0000      -0.538644       -14.6572
  63   2.0000      -0.533179       -14.5085
  64   2.0000      -0.529957       -14.4209
  65   2.0000      -0.516913       -14.0659
  66   2.0000      -0.508176       -13.8282
  67   2.0000      -0.495301       -13.4778
  68   2.0000      -0.481195       -13.0940
  69   2.0000      -0.466189       -12.6856
  70   2.0000      -0.451894       -12.2966
  71   2.0000      -0.441611       -12.0169
  72   2.0000      -0.360070        -9.7980
  73   2.0000      -0.356943        -9.7129
  74   2.0000      -0.332822        -9.0565
  75   2.0000      -0.328039        -8.9264
  76   2.0000      -0.318266        -8.6605
  77   0.0000       0.069176         1.8824
  78   0.0000       0.101709         2.7676
  79   0.0000       0.120078         3.2675
  80   0.0000       0.124945         3.3999
  81   0.0000       0.129931         3.5356

MULLIKEN ATOMIC CHARGES
-----------------------
   0 C :   -0.319171
   1 C :    0.029801
   2 O :   -0.386224
   3 C :    0.505705
   4 O :   -0.398703
   5 C :   -0.283960
   6 C :    0.150252
   7 C :   -0.271894
   8 N :   -0.123176
   9 C :    0.216469
  10 S :   -0.436511
  11 N :   -0.202403
  12 C :    0.049812
  13 C :    0.067762
  14 C :   -0.206712
  15 C :   -0.127087
  16 C :   -0.276882
  17 C :    0.320060
  18 O :   -0.357402
  19 C :   -0.277292
  20 H :    0.093747
  21 H :    0.109697
  22 H :    0.125554
  23 H :    0.107193
  24 H :    0.120026
  25 H :    0.126596
  26 H :    0.139854
  27 H :    0.094254
  28 H :    0.198821
  29 H :    0.191166
  30 H :    0.152789
  31 H :    0.149994
  32 H :    0.163429
  33 H :    0.133789
  34 H :    0.243024
  35 H :    0.177624
Sum of atomic charges:   -0.0000000

LOEWDIN ATOMIC CHARGES
----------------------
   0 C :    0.105312
   1 C :   -0.011204
   2 O :    0.277927
   3 C :   -0.423709
   4 O :    0.122965
   5 C :   -0.099272
   6 C :   -0.059269
   7 C :    0.130452
   8 N :    0.408116
   9 C :   -0.454471
  10 S :   -0.031577
  11 N :    0.396062
  12 C :   -0.052705
  13 C :   -0.037854
  14 C :    0.009776
  15 C :    0.043348
  16 C :   -0.000492
  17 C :   -0.189093
  18 O :    0.396762
  19 C :    0.031960
  20 H :   -0.033528
  21 H :   -0.022804
  22 H :   -0.022770
  23 H :   -0.037580
  24 H :   -0.023831
  25 H :   -0.006673
  26 H :   -0.002062
  27 H :   -0.023085
  28 H :   -0.057220
  29 H :   -0.066692
  30 H :   -0.004984
  31 H :   -0.029908
  32 H :   -0.018926
  33 H :   -0.033861
  34 H :   -0.151752
  35 H :   -0.027359

  Mayer bond orders larger than 0.100000
B(  0-C ,  1-C ) :   0.9672 B(  0-C , 20-H ) :   0.9722 B(  0-C , 21-H ) :   0.9754
B(  0-C , 22-H ) :   0.9712 B(  1-C ,  2-O ) :   0.8968 B(  1-C , 23-H ) :   0.9674
B(  1-C , 24-H ) :   0.9828 B(  2-O ,  3-C ) :   1.1045 B(  3-C ,  4-O ) :   2.0351
B(  3-C ,  5-C ) :   1.0380 B(  5-C ,  6-C ) :   1.6484 B(  5-C , 12-C ) :   0.9725
B(  6-C ,  7-C ) :   0.9735 B(  6-C ,  8-N ) :   1.1554 B(  7-C , 25-H ) :   0.9655
B(  7-C , 26-H ) :   0.9550 B(  7-C , 27-H ) :   0.9871 B(  8-N ,  9-C ) :   1.1803
B(  8-N , 28-H ) :   0.9486 B(  9-C , 10-S ) :   1.6118 B(  9-C , 11-N ) :   1.3014
B( 11-N , 12-C ) :   0.9550 B( 11-N , 29-H ) :   0.9544 B( 12-C , 13-C ) :   0.9581
B( 12-C , 30-H ) :   0.9985 B( 13-C , 14-C ) :   1.3424 B( 13-C , 19-C ) :   1.3621
B( 14-C , 15-C ) :   1.3974 B( 14-C , 31-H ) :   0.9750 B( 15-C , 16-C ) :   1.3644
B( 15-C , 32-H ) :   0.9697 B( 16-C , 17-C ) :   1.3301 B( 16-C , 33-H ) :   0.9835
B( 17-C , 18-O ) :   1.1153 B( 17-C , 19-C ) :   1.3674 B( 18-O , 34-H ) :   0.9787
B( 19-C , 35-H ) :   0.9516

MP2 TOTAL ENERGY:    -1274.329343052 Eh
FINAL SINGLE POINT ENERGY     -1274.329343051845

DIPOLE MOMENT
-------------
                                X             Y             Z
Electronic contribution:     10.00851       7.92425       5.21976
Nuclear contribution   :    -11.16037      -9.50329      -4.68813
                        -----------------------------------------
Total Dipole Moment    :     -1.15186      -1.57904       0.53163
                        -----------------------------------------
Magnitude (a.u.)       :      2.02553
Magnitude (Debye)      :      5.14849

Rotational constants in cm-1:     0.011708     0.009693     0.006748
Rotational constants in MHz :   350.993299   290.591010   202.311694

                             ****ORCA TERMINATED NORMALLY****
TOTAL RUN TIME: 0 days 2 hours 11 minutes 12 seconds 310 msec
