                         Program Version 4.2.0 -  RELEASE  -
|  1> ! ri-mp2 cc-pvtz cc-pvtz/c TightSCF  NoKeepInts
|  2>
|  3> %scf
|  4>   MaxCore 4096
|  5> end
|  6> *xyz  0  1
|  7>     C       15.7886480   13.9026616   14.8000089
|  8>     C       15.0354885   15.0033335   15.5803408
|  9>     O       15.9067568   15.9845113   16.1937340
| 10>     C       17.0619652   15.7027226   16.8740881
| 11>     O       17.4991669   14.5747686   17.0246893
| 12>     C       17.6037642   16.8655826   17.6585393
| 13>     C       17.2974477   18.1714940   17.4357808
| 14>     C       16.3834249   18.7520321   16.3756758
| 15>     N       17.9190025   19.1695912   18.1940671
| 16>     C       18.9560142   18.9621787   19.0645498
| 17>     S       19.7264773   20.2169647   19.8179947
| 18>     N       19.3221727   17.6577777   19.2770822
| 19>     C       18.5830148   16.4841246   18.7758174
| 20>     C       17.8624518   15.7785598   19.9220897
| 21>     C       18.0718478   14.4071905   20.1580823
| 22>     C       17.4108840   13.7517124   21.2104146
| 23>     C       16.5317225   14.4730247   22.0358464
| 24>     C       16.3171781   15.8381055   21.8021829
| 25>     O       15.4641877   16.5360684   22.5938536
| 26>     C       16.9762205   16.4876608   20.7537408
| 27>     H       16.6050303   14.3308718   14.2053681
| 28>     H       15.1030672   13.3890896   14.1153825
| 29>     H       16.2031352   13.1427155   15.4735130
| 30>     H       14.3507546   15.5227605   14.8978193
| 31>     H       14.4250253   14.5237379   16.3568120
| 32>     H       15.3358466   18.5094912   16.5936654
| 33>     H       16.6269500   18.3459861   15.3860361
| 34>     H       16.4601549   19.8435852   16.3016229
| 35>     H       17.6639631   20.1338131   18.0523924
| 36>     H       20.0682234   17.5282612   19.9482509
| 37>     H       19.3195614   15.7861616   18.3521217
| 38>     H       18.7378029   13.8430764   19.5096048
| 39>     H       17.5769103   12.6890739   21.3776143
| 40>     H       16.0176462   13.9703210   22.8481527
| 41>     H       15.1370057   15.9276796   23.2731795
| 42>     H       16.7980868   17.5453101   20.5938860
| 43> *
| 44>
| 45>                          ****END OF INPUT****

CARTESIAN COORDINATES (ANGSTROEM)
---------------------------------
  C     15.788648   13.902662   14.800009
  C     15.035488   15.003334   15.580341
  O     15.906757   15.984511   16.193734
  C     17.061965   15.702723   16.874088
  O     17.499167   14.574769   17.024689
  C     17.603764   16.865583   17.658539
  C     17.297448   18.171494   17.435781
  C     16.383425   18.752032   16.375676
  N     17.919003   19.169591   18.194067
  C     18.956014   18.962179   19.064550
  S     19.726477   20.216965   19.817995
  N     19.322173   17.657778   19.277082
  C     18.583015   16.484125   18.775817
  C     17.862452   15.778560   19.922090
  C     18.071848   14.407191   20.158082
  C     17.410884   13.751712   21.210415
  C     16.531723   14.473025   22.035846
  C     16.317178   15.838105   21.802183
  O     15.464188   16.536068   22.593854
  C     16.976220   16.487661   20.753741
  H     16.605030   14.330872   14.205368
  H     15.103067   13.389090   14.115382
  H     16.203135   13.142715   15.473513
  H     14.350755   15.522760   14.897819
  H     14.425025   14.523738   16.356812
  H     15.335847   18.509491   16.593665
  H     16.626950   18.345986   15.386036
  H     16.460155   19.843585   16.301623
  H     17.663963   20.133813   18.052392
  H     20.068223   17.528261   19.948251
  H     19.319561   15.786162   18.352122
  H     18.737803   13.843076   19.509605
  H     17.576910   12.689074   21.377614
  H     16.017646   13.970321   22.848153
  H     15.137006   15.927680   23.273180
  H     16.798087   17.545310   20.593886

 Total Charge           Charge          ....    0
 Multiplicity           Mult            ....    1
 Number of Electrons    NEL             ....  154
 Basis Dimension        Dim             ....  828

ORBITAL ENERGIES
----------------

  NO   OCC          E(Eh)            E(eV)
   0   2.0000     -91.887255     -2500.3793
   1   2.0000     -20.601984      -560.6085
   2   2.0000     -20.590618      -560.2992
   3   2.0000     -20.544892      -559.0549
   4   2.0000     -15.627277      -425.2398
   5   2.0000     -15.605859      -424.6570
   6   2.0000     -11.398078      -310.1575
   7   2.0000     -11.382050      -309.7213
   8   2.0000     -11.334909      -308.4386
   9   2.0000     -11.306394      -307.6626
  10   2.0000     -11.305450      -307.6369
  11   2.0000     -11.304635      -307.6148
  12   2.0000     -11.259727      -306.3928
  13   2.0000     -11.258099      -306.3484
  14   2.0000     -11.252352      -306.1921
  15   2.0000     -11.246611      -306.0358
  16   2.0000     -11.236214      -305.7529
  17   2.0000     -11.232253      -305.6451
  18   2.0000     -11.229328      -305.5655
  19   2.0000     -11.224708      -305.4398
  20   2.0000      -8.892325      -241.9725
  21   2.0000      -6.573905      -178.8850
  22   2.0000      -6.571897      -178.8304
  23   2.0000      -6.571313      -178.8145
  24   2.0000      -1.448384       -39.4125
  25   2.0000      -1.410348       -38.3775
  26   2.0000      -1.357322       -36.9346
  27   2.0000      -1.338404       -36.4198
  28   2.0000      -1.236032       -33.6341
  29   2.0000      -1.150923       -31.3182
  30   2.0000      -1.118179       -30.4272
  31   2.0000      -1.041366       -28.3370
  32   2.0000      -1.034111       -28.1396
  33   2.0000      -1.008357       -27.4388
  34   2.0000      -0.996166       -27.1071
  35   2.0000      -0.981682       -26.7129
  36   2.0000      -0.920606       -25.0510
  37   2.0000      -0.896279       -24.3890
  38   2.0000      -0.847171       -23.0527
  39   2.0000      -0.834827       -22.7168
  40   2.0000      -0.826815       -22.4988
  41   2.0000      -0.816994       -22.2315
  42   2.0000      -0.745616       -20.2892
  43   2.0000      -0.729299       -19.8452
  44   2.0000      -0.723824       -19.6962
  45   2.0000      -0.689970       -18.7750
  46   2.0000      -0.684021       -18.6131
  47   2.0000      -0.678387       -18.4599
  48   2.0000      -0.670087       -18.2340
  49   2.0000      -0.664843       -18.0913
  50   2.0000      -0.644953       -17.5501
  51   2.0000      -0.641883       -17.4665
  52   2.0000      -0.633279       -17.2324
  53   2.0000      -0.606735       -16.5101
  54   2.0000      -0.598938       -16.2979
  55   2.0000      -0.598060       -16.2740
  56   2.0000      -0.593707       -16.1556
  57   2.0000      -0.586254       -15.9528
  58   2.0000      -0.571702       -15.5568
  59   2.0000      -0.567511       -15.4428
  60   2.0000      -0.559192       -15.2164
  61   2.0000      -0.543578       -14.7915
  62   2.0000      -0.536394       -14.5960
  63   2.0000      -0.521894       -14.2015
  64   2.0000      -0.516351       -14.0506
  65   2.0000      -0.510733       -13.8978
  66   2.0000      -0.500681       -13.6242
  67   2.0000      -0.494559       -13.4576
  68   2.0000      -0.479565       -13.0496
  69   2.0000      -0.461414       -12.5557
  70   2.0000      -0.456244       -12.4150
  71   2.0000      -0.447878       -12.1874
  72   2.0000      -0.353198        -9.6110
  73   2.0000      -0.342884        -9.3303
  74   2.0000      -0.326411        -8.8821
  75   2.0000      -0.314723        -8.5640
  76   2.0000      -0.312751        -8.5104
  77   0.0000       0.077374         2.1055
  78   0.0000       0.114453         3.1144
  79   0.0000       0.121290         3.3005
  80   0.0000       0.136772         3.7217
  81   0.0000       0.140434         3.8214

MULLIKEN ATOMIC CHARGES
-----------------------
   0 C :   -0.299680
   1 C :    0.050292
   2 O :   -0.352106
   3 C :    0.443166
   4 O :   -0.432499
   5 C :   -0.153078
   6 C :    0.138544
   7 C :   -0.285826
   8 N :   -0.120783
   9 C :    0.201110
  10 S :   -0.440507
  11 N :   -0.196275
  12 C :    0.031822
  13 C :    0.058430
  14 C :   -0.162020
  15 C :   -0.134119
  16 C :   -0.278973
  17 C :    0.311535
  18 O :   -0.359120
  19 C :   -0.270661
  20 H :    0.094405
  21 H :    0.095955
  22 H :    0.127125
  23 H :    0.099473
  24 H :    0.092436
  25 H :    0.128749
  26 H :    0.123431
  27 H :    0.102264
  28 H :    0.196530
  29 H :    0.193155
  30 H :    0.153727
  31 H :    0.153175
  32 H :    0.158552
  33 H :    0.127618
  34 H :    0.239840
  35 H :    0.164309
Sum of atomic charges:   -0.0000000

LOEWDIN ATOMIC CHARGES
----------------------
   0 C :    0.103018
   1 C :   -0.009867
   2 O :    0.296512
   3 C :   -0.413270
   4 O :    0.111350
   5 C :   -0.089786
   6 C :   -0.066201
   7 C :    0.124441
   8 N :    0.404552
   9 C :   -0.459143
  10 S :   -0.036947
  11 N :    0.397850
  12 C :   -0.046380
  13 C :   -0.038484
  14 C :    0.021650
  15 C :    0.040590
  16 C :   -0.002452
  17 C :   -0.192399
  18 O :    0.392995
  19 C :    0.028922
  20 H :   -0.027540
  21 H :   -0.028823
  22 H :   -0.024923
  23 H :   -0.025367
  24 H :   -0.027872
  25 H :   -0.009505
  26 H :   -0.009418
  27 H :   -0.021214
  28 H :   -0.059388
  29 H :   -0.063743
  30 H :   -0.005388
  31 H :   -0.025570
  32 H :   -0.021469
  33 H :   -0.036562
  34 H :   -0.155081
  35 H :   -0.025085

  Mayer bond orders larger than 0.100000
B(  0-C ,  1-C ) :   0.9685 B(  0-C , 20-H ) :   0.9760 B(  0-C , 21-H ) :   0.9767
B(  0-C , 22-H ) :   0.9713 B(  1-C ,  2-O ) :   0.9038 B(  1-C , 23-H ) :   0.9835
B(  1-C , 24-H ) :   0.9800 B(  2-O ,  3-C ) :   1.1547 B(  3-C ,  4-O ) :   1.9638
B(  3-C ,  5-C ) :   1.0619 B(  5-C ,  6-C ) :   1.6460 B(  5-C , 12-C ) :   0.9653
B(  6-C ,  7-C ) :   0.9557 B(  6-C ,  8-N ) :   1.1482 B(  7-C , 25-H ) :   0.9631
B(  7-C , 26-H ) :   0.9665 B(  7-C , 27-H ) :   0.9920 B(  8-N ,  9-C ) :   1.1787
B(  8-N , 28-H ) :   0.9492 B(  9-C , 10-S ) :   1.6098 B(  9-C , 11-N ) :   1.3041
B( 11-N , 12-C ) :   0.9940 B( 11-N , 29-H ) :   0.9521 B( 12-C , 13-C ) :   0.9477
B( 12-C , 30-H ) :   1.0000 B( 13-C , 14-C ) :   1.3753 B( 13-C , 19-C ) :   1.3701
B( 14-C , 15-C ) :   1.3949 B( 14-C , 31-H ) :   0.9651 B( 15-C , 16-C ) :   1.3627
B( 15-C , 32-H ) :   0.9715 B( 16-C , 17-C ) :   1.3314 B( 16-C , 33-H ) :   0.9861
B( 17-C , 18-O ) :   1.1079 B( 17-C , 19-C ) :   1.3794 B( 18-O , 34-H ) :   0.9808
B( 19-C , 35-H ) :   0.9584

MP2 TOTAL ENERGY:    -1274.340118720 Eh
FINAL SINGLE POINT ENERGY     -1274.340118719720

DIPOLE MOMENT
-------------
                                X             Y             Z
Electronic contribution:      9.58767       9.86422      11.63632
Nuclear contribution   :    -11.27007     -11.01274     -12.65436
                        -----------------------------------------
Total Dipole Moment    :     -1.68240      -1.14851      -1.01804
                        -----------------------------------------
Magnitude (a.u.)       :      2.27727
Magnitude (Debye)      :      5.78837

Rotational constants in cm-1:     0.010585     0.008834     0.005795
Rotational constants in MHz :   317.331811   264.825821   173.724864

                             ****ORCA TERMINATED NORMALLY****
TOTAL RUN TIME: 0 days 1 hours 35 minutes 11 seconds 952 msec
