                         Program Version 4.2.0 -  RELEASE  -
|  1> ! ri-mp2 cc-pvtz cc-pvtz/c TightSCF  NoKeepInts
|  2>
|  3> %scf
|  4>   MaxCore 4096
|  5> end
|  6> *xyz  0  1
|  7>     C       15.1679651   13.7833325   15.6461527
|  8>     C       15.2171007   14.9966849   16.5942184
|  9>     O       16.2240225   15.9125561   16.1264919
| 10>     C       17.4933889   15.7915255   16.6143371
| 11>     O       18.0080212   14.6981979   16.7804373
| 12>     C       17.8727383   16.9618420   17.4703341
| 13>     C       17.4978478   18.2397983   17.2114651
| 14>     C       16.6883036   18.7400446   16.0332571
| 15>     N       17.9333516   19.2744581   18.0450002
| 16>     C       18.8419939   19.1304675   19.0606167
| 17>     S       19.3894336   20.4268518   19.9295746
| 18>     N       19.2744491   17.8539883   19.3201343
| 19>     C       18.7306050   16.6328277   18.6956629
| 20>     C       17.9293304   15.8222252   19.7110877
| 21>     C       18.2371619   14.4695946   19.9464094
| 22>     C       17.4932400   13.7154282   20.8692387
| 23>     C       16.4305724   14.3179890   21.5636887
| 24>     C       16.1178213   15.6637725   21.3292623
| 25>     O       15.0865904   16.2462416   21.9913492
| 26>     C       16.8594041   16.4115059   20.4093114
| 27>     H       16.1111987   13.2236490   15.6747980
| 28>     H       14.9889084   14.1056754   14.6130869
| 29>     H       14.3608924   13.1008853   15.9383157
| 30>     H       14.2397871   15.4957229   16.5800989
| 31>     H       15.4225975   14.6758363   17.6255012
| 32>     H       16.9938949   18.2398993   15.1056813
| 33>     H       16.8083750   19.8179181   15.8694781
| 34>     H       15.6202486   18.5405046   16.1852213
| 35>     H       17.6279597   20.2185896   17.8700893
| 36>     H       19.9211843   17.7726649   20.0941731
| 37>     H       19.5804025   16.0223444   18.3574068
| 38>     H       19.0463585   13.9960198   19.3956429
| 39>     H       17.7384642   12.6682653   21.0375127
| 40>     H       15.8524127   13.7385438   22.2757598
| 41>     H       14.7390365   15.5939448   22.6180643
| 42>     H       16.6019372   17.4522042   20.2451399
| 43> *
| 44>
| 45>                          ****END OF INPUT****

CARTESIAN COORDINATES (ANGSTROEM)
---------------------------------
  C     15.167965   13.783332   15.646153
  C     15.217101   14.996685   16.594218
  O     16.224023   15.912556   16.126492
  C     17.493389   15.791525   16.614337
  O     18.008021   14.698198   16.780437
  C     17.872738   16.961842   17.470334
  C     17.497848   18.239798   17.211465
  C     16.688304   18.740045   16.033257
  N     17.933352   19.274458   18.045000
  C     18.841994   19.130468   19.060617
  S     19.389434   20.426852   19.929575
  N     19.274449   17.853988   19.320134
  C     18.730605   16.632828   18.695663
  C     17.929330   15.822225   19.711088
  C     18.237162   14.469595   19.946409
  C     17.493240   13.715428   20.869239
  C     16.430572   14.317989   21.563689
  C     16.117821   15.663772   21.329262
  O     15.086590   16.246242   21.991349
  C     16.859404   16.411506   20.409311
  H     16.111199   13.223649   15.674798
  H     14.988908   14.105675   14.613087
  H     14.360892   13.100885   15.938316
  H     14.239787   15.495723   16.580099
  H     15.422598   14.675836   17.625501
  H     16.993895   18.239899   15.105681
  H     16.808375   19.817918   15.869478
  H     15.620249   18.540505   16.185221
  H     17.627960   20.218590   17.870089
  H     19.921184   17.772665   20.094173
  H     19.580403   16.022344   18.357407
  H     19.046359   13.996020   19.395643
  H     17.738464   12.668265   21.037513
  H     15.852413   13.738544   22.275760
  H     14.739036   15.593945   22.618064
  H     16.601937   17.452204   20.245140

 Total Charge           Charge          ....    0
 Multiplicity           Mult            ....    1
 Number of Electrons    NEL             ....  154
 Basis Dimension        Dim             ....  828

ORBITAL ENERGIES
----------------

  NO   OCC          E(Eh)            E(eV)
   0   2.0000     -91.888433     -2500.4114
   1   2.0000     -20.595188      -560.4236
   2   2.0000     -20.588094      -560.2305
   3   2.0000     -20.555037      -559.3310
   4   2.0000     -15.627930      -425.2576
   5   2.0000     -15.607954      -424.7140
   6   2.0000     -11.396303      -310.1092
   7   2.0000     -11.383868      -309.7708
   8   2.0000     -11.332844      -308.3824
   9   2.0000     -11.311456      -307.8004
  10   2.0000     -11.308285      -307.7141
  11   2.0000     -11.300128      -307.4921
  12   2.0000     -11.259582      -306.3888
  13   2.0000     -11.259531      -306.3874
  14   2.0000     -11.257074      -306.3206
  15   2.0000     -11.251637      -306.1726
  16   2.0000     -11.241280      -305.8908
  17   2.0000     -11.237131      -305.7779
  18   2.0000     -11.234400      -305.7036
  19   2.0000     -11.220148      -305.3158
  20   2.0000      -8.893511      -242.0047
  21   2.0000      -6.575090      -178.9173
  22   2.0000      -6.573080      -178.8626
  23   2.0000      -6.572496      -178.8467
  24   2.0000      -1.453066       -39.5399
  25   2.0000      -1.414959       -38.5030
  26   2.0000      -1.357817       -36.9481
  27   2.0000      -1.339141       -36.4399
  28   2.0000      -1.237440       -33.6724
  29   2.0000      -1.155626       -31.4462
  30   2.0000      -1.120916       -30.5017
  31   2.0000      -1.043847       -28.4045
  32   2.0000      -1.031450       -28.0672
  33   2.0000      -1.013050       -27.5665
  34   2.0000      -0.998236       -27.1634
  35   2.0000      -0.983500       -26.7624
  36   2.0000      -0.922891       -25.1131
  37   2.0000      -0.885003       -24.0822
  38   2.0000      -0.848367       -23.0852
  39   2.0000      -0.838201       -22.8086
  40   2.0000      -0.831668       -22.6308
  41   2.0000      -0.824130       -22.4257
  42   2.0000      -0.751822       -20.4581
  43   2.0000      -0.733209       -19.9516
  44   2.0000      -0.727763       -19.8034
  45   2.0000      -0.693654       -18.8753
  46   2.0000      -0.686168       -18.6716
  47   2.0000      -0.681135       -18.5346
  48   2.0000      -0.672587       -18.3020
  49   2.0000      -0.663261       -18.0483
  50   2.0000      -0.646792       -17.6001
  51   2.0000      -0.641858       -17.4658
  52   2.0000      -0.634021       -17.2526
  53   2.0000      -0.605167       -16.4674
  54   2.0000      -0.602898       -16.4057
  55   2.0000      -0.599219       -16.3056
  56   2.0000      -0.595596       -16.2070
  57   2.0000      -0.585536       -15.9332
  58   2.0000      -0.575828       -15.6691
  59   2.0000      -0.568919       -15.4811
  60   2.0000      -0.561954       -15.2915
  61   2.0000      -0.548281       -14.9195
  62   2.0000      -0.534731       -14.5508
  63   2.0000      -0.520645       -14.1675
  64   2.0000      -0.514314       -13.9952
  65   2.0000      -0.511202       -13.9105
  66   2.0000      -0.503374       -13.6975
  67   2.0000      -0.497385       -13.5345
  68   2.0000      -0.481421       -13.1001
  69   2.0000      -0.464393       -12.6368
  70   2.0000      -0.454356       -12.3637
  71   2.0000      -0.452107       -12.3025
  72   2.0000      -0.353658        -9.6235
  73   2.0000      -0.347378        -9.4526
  74   2.0000      -0.327753        -8.9186
  75   2.0000      -0.318637        -8.6705
  76   2.0000      -0.315307        -8.5799
  77   0.0000       0.072402         1.9702
  78   0.0000       0.106706         2.9036
  79   0.0000       0.120186         3.2704
  80   0.0000       0.132994         3.6190
  81   0.0000       0.137169         3.7326

MULLIKEN ATOMIC CHARGES
-----------------------
   0 C :   -0.275703
   1 C :    0.044539
   2 O :   -0.369530
   3 C :    0.429186
   4 O :   -0.407286
   5 C :   -0.158741
   6 C :    0.135068
   7 C :   -0.280747
   8 N :   -0.123785
   9 C :    0.203104
  10 S :   -0.440172
  11 N :   -0.200828
  12 C :    0.051473
  13 C :    0.041228
  14 C :   -0.162316
  15 C :   -0.134272
  16 C :   -0.280828
  17 C :    0.310820
  18 O :   -0.358307
  19 C :   -0.272358
  20 H :    0.117764
  21 H :    0.090405
  22 H :    0.087726
  23 H :    0.098073
  24 H :    0.101647
  25 H :    0.122952
  26 H :    0.102809
  27 H :    0.126476
  28 H :    0.197049
  29 H :    0.194119
  30 H :    0.154932
  31 H :    0.156130
  32 H :    0.160782
  33 H :    0.130415
  34 H :    0.240589
  35 H :    0.167587
Sum of atomic charges:   -0.0000000

LOEWDIN ATOMIC CHARGES
----------------------
   0 C :    0.104908
   1 C :   -0.014805
   2 O :    0.291604
   3 C :   -0.413958
   4 O :    0.126230
   5 C :   -0.092612
   6 C :   -0.073330
   7 C :    0.126110
   8 N :    0.404066
   9 C :   -0.457602
  10 S :   -0.036688
  11 N :    0.397117
  12 C :   -0.045436
  13 C :   -0.040698
  14 C :    0.020734
  15 C :    0.040832
  16 C :   -0.002437
  17 C :   -0.193733
  18 O :    0.393574
  19 C :    0.028288
  20 H :   -0.024840
  21 H :   -0.029561
  22 H :   -0.029981
  23 H :   -0.026778
  24 H :   -0.025939
  25 H :   -0.008336
  26 H :   -0.019735
  27 H :   -0.009527
  28 H :   -0.058778
  29 H :   -0.064067
  30 H :   -0.004951
  31 H :   -0.024872
  32 H :   -0.020536
  33 H :   -0.035749
  34 H :   -0.154265
  35 H :   -0.024250

  Mayer bond orders larger than 0.100000
B(  0-C ,  1-C ) :   0.9764 B(  0-C , 20-H ) :   0.9731 B(  0-C , 21-H ) :   0.9769
B(  0-C , 22-H ) :   0.9763 B(  1-C ,  2-O ) :   0.8938 B(  1-C , 23-H ) :   0.9830
B(  1-C , 24-H ) :   0.9706 B(  2-O ,  3-C ) :   1.0843 B(  3-C ,  4-O ) :   1.9952
B(  3-C ,  5-C ) :   1.0389 B(  5-C ,  6-C ) :   1.6661 B(  5-C , 12-C ) :   0.9628
B(  6-C ,  7-C ) :   0.9523 B(  6-C ,  8-N ) :   1.1380 B(  7-C , 25-H ) :   0.9703
B(  7-C , 26-H ) :   0.9886 B(  7-C , 27-H ) :   0.9628 B(  8-N ,  9-C ) :   1.1844
B(  8-N , 28-H ) :   0.9498 B(  9-C , 10-S ) :   1.6102 B(  9-C , 11-N ) :   1.2999
B( 11-N , 12-C ) :   0.9932 B( 11-N , 29-H ) :   0.9516 B( 12-C , 13-C ) :   0.9441
B( 12-C , 30-H ) :   0.9986 B( 13-C , 14-C ) :   1.3775 B( 13-C , 19-C ) :   1.3695
B( 14-C , 15-C ) :   1.3947 B( 14-C , 31-H ) :   0.9640 B( 15-C , 16-C ) :   1.3633
B( 15-C , 32-H ) :   0.9710 B( 16-C , 17-C ) :   1.3304 B( 16-C , 33-H ) :   0.9852
B( 17-C , 18-O ) :   1.1098 B( 17-C , 19-C ) :   1.3765 B( 18-O , 34-H ) :   0.9800
B( 19-C , 35-H ) :   0.9577

MP2 TOTAL ENERGY:    -1274.327548782 Eh
FINAL SINGLE POINT ENERGY     -1274.327548781701

DIPOLE MOMENT
-------------
                                X             Y             Z
Electronic contribution:     10.67075      10.59760       8.69758
Nuclear contribution   :    -12.16133     -11.77456      -9.27850
                        -----------------------------------------
Total Dipole Moment    :     -1.49057      -1.17697      -0.58092
                        -----------------------------------------
Magnitude (a.u.)       :      1.98608
Magnitude (Debye)      :      5.04822

Rotational constants in cm-1:     0.011524     0.009003     0.006231
Rotational constants in MHz :   345.479530   269.908672   186.807507

                             ****ORCA TERMINATED NORMALLY****
TOTAL RUN TIME: 0 days 1 hours 41 minutes 17 seconds 822 msec
