                         Program Version 4.2.0 -  RELEASE  -
|  1> ! ri-mp2 cc-pvtz cc-pvtz/c TightSCF  NoKeepInts
|  2>
|  3> %scf
|  4>   MaxCore 4096
|  5> end
|  6> *xyz  0  1
|  7>     C       14.5238134   14.4630040   16.5169140
|  8>     C       15.5973370   15.4925530   16.9039358
|  9>     O       16.8476511   15.0190259   16.3690971
| 10>     C       18.0637919   15.6098765   16.6076489
| 11>     O       19.0785671   14.9434654   16.5238579
| 12>     C       18.0409653   16.8582708   17.4273291
| 13>     C       17.5386059   18.0254026   16.9625280
| 14>     C       16.9671048   18.2887971   15.5854822
| 15>     N       17.6111090   19.1760013   17.7503992
| 16>     C       18.2627842   19.2564064   18.9538947
| 17>     S       18.3541332   20.6752210   19.7978453
| 18>     N       18.8341651   18.0996123   19.4255975
| 19>     C       18.7148453   16.7690421   18.7957752
| 20>     C       17.9731475   15.7845769   19.6953669
| 21>     C       18.4058602   14.4486794   19.7818653
| 22>     C       17.7164873   13.5220881   20.5813823
| 23>     C       16.5812295   13.9326907   21.3002245
| 24>     C       16.1426248   15.2605039   21.2126075
| 25>     O       15.0381317   15.6570815   21.8931263
| 26>     C       16.8302092   16.1811589   20.4153441
| 27>     H       14.7719955   13.4762309   16.9280906
| 28>     H       14.4478388   14.3731118   15.4260969
| 29>     H       13.5435328   14.7610088   16.9082042
| 30>     H       15.3220949   16.4688194   16.4926073
| 31>     H       15.6485829   15.5661291   17.9977767
| 32>     H       16.9929630   17.4006108   14.9421984
| 33>     H       17.5449716   19.0671133   15.0705514
| 34>     H       15.9256649   18.6282043   15.6454272
| 35>     H       17.2169227   20.0404769   17.4133001
| 36>     H       19.2936283   18.1857621   20.3235649
| 37>     H       19.7332400   16.3831381   18.6390936
| 38>     H       19.2733045   14.1228272   19.2111870
| 39>     H       18.0598869   12.4902433   20.6347524
| 40>     H       16.0441974   13.2187465   21.9160327
| 41>     H       14.7383167   14.9039510   22.4246596
| 42>     H       16.4672956   17.2021688   20.3602352
| 43> *
| 44>
| 45>                          ****END OF INPUT****

CARTESIAN COORDINATES (ANGSTROEM)
---------------------------------
  C     14.523813   14.463004   16.516914
  C     15.597337   15.492553   16.903936
  O     16.847651   15.019026   16.369097
  C     18.063792   15.609877   16.607649
  O     19.078567   14.943465   16.523858
  C     18.040965   16.858271   17.427329
  C     17.538606   18.025403   16.962528
  C     16.967105   18.288797   15.585482
  N     17.611109   19.176001   17.750399
  C     18.262784   19.256406   18.953895
  S     18.354133   20.675221   19.797845
  N     18.834165   18.099612   19.425597
  C     18.714845   16.769042   18.795775
  C     17.973147   15.784577   19.695367
  C     18.405860   14.448679   19.781865
  C     17.716487   13.522088   20.581382
  C     16.581229   13.932691   21.300224
  C     16.142625   15.260504   21.212607
  O     15.038132   15.657081   21.893126
  C     16.830209   16.181159   20.415344
  H     14.771995   13.476231   16.928091
  H     14.447839   14.373112   15.426097
  H     13.543533   14.761009   16.908204
  H     15.322095   16.468819   16.492607
  H     15.648583   15.566129   17.997777
  H     16.992963   17.400611   14.942198
  H     17.544972   19.067113   15.070551
  H     15.925665   18.628204   15.645427
  H     17.216923   20.040477   17.413300
  H     19.293628   18.185762   20.323565
  H     19.733240   16.383138   18.639094
  H     19.273304   14.122827   19.211187
  H     18.059887   12.490243   20.634752
  H     16.044197   13.218746   21.916033
  H     14.738317   14.903951   22.424660
  H     16.467296   17.202169   20.360235

 Total Charge           Charge          ....    0
 Multiplicity           Mult            ....    1
 Number of Electrons    NEL             ....  154
 Basis Dimension        Dim             ....  828

ORBITAL ENERGIES
----------------

  NO   OCC          E(Eh)            E(eV)
   0   2.0000     -91.890275     -2500.4615
   1   2.0000     -20.600876      -560.5783
   2   2.0000     -20.600057      -560.5560
   3   2.0000     -20.550571      -559.2095
   4   2.0000     -15.627105      -425.2352
   5   2.0000     -15.611909      -424.8217
   6   2.0000     -11.397726      -310.1479
   7   2.0000     -11.387088      -309.8584
   8   2.0000     -11.329860      -308.3012
   9   2.0000     -11.317067      -307.9531
  10   2.0000     -11.315423      -307.9083
  11   2.0000     -11.302413      -307.5543
  12   2.0000     -11.270328      -306.6812
  13   2.0000     -11.265189      -306.5414
  14   2.0000     -11.264086      -306.5114
  15   2.0000     -11.257132      -306.3221
  16   2.0000     -11.246270      -306.0266
  17   2.0000     -11.242335      -305.9195
  18   2.0000     -11.239296      -305.8368
  19   2.0000     -11.232589      -305.6543
  20   2.0000      -8.895390      -242.0559
  21   2.0000      -6.576978      -178.9687
  22   2.0000      -6.574952      -178.9135
  23   2.0000      -6.574377      -178.8979
  24   2.0000      -1.448758       -39.4227
  25   2.0000      -1.419883       -38.6370
  26   2.0000      -1.360081       -37.0097
  27   2.0000      -1.340527       -36.4776
  28   2.0000      -1.240301       -33.7503
  29   2.0000      -1.161649       -31.6101
  30   2.0000      -1.125971       -30.6392
  31   2.0000      -1.049448       -28.5569
  32   2.0000      -1.040156       -28.3041
  33   2.0000      -1.019358       -27.7381
  34   2.0000      -1.005634       -27.3647
  35   2.0000      -0.989683       -26.9307
  36   2.0000      -0.928293       -25.2601
  37   2.0000      -0.880078       -23.9481
  38   2.0000      -0.856204       -23.2985
  39   2.0000      -0.842428       -22.9236
  40   2.0000      -0.837570       -22.7914
  41   2.0000      -0.836735       -22.7687
  42   2.0000      -0.757110       -20.6020
  43   2.0000      -0.740095       -20.1390
  44   2.0000      -0.732112       -19.9218
  45   2.0000      -0.697722       -18.9860
  46   2.0000      -0.688543       -18.7362
  47   2.0000      -0.681625       -18.5480
  48   2.0000      -0.677536       -18.4367
  49   2.0000      -0.663856       -18.0644
  50   2.0000      -0.656327       -17.8596
  51   2.0000      -0.651218       -17.7205
  52   2.0000      -0.640011       -17.4156
  53   2.0000      -0.612357       -16.6631
  54   2.0000      -0.608040       -16.5456
  55   2.0000      -0.603905       -16.4331
  56   2.0000      -0.595103       -16.1936
  57   2.0000      -0.584532       -15.9059
  58   2.0000      -0.578087       -15.7306
  59   2.0000      -0.571282       -15.5454
  60   2.0000      -0.564275       -15.3547
  61   2.0000      -0.557598       -15.1730
  62   2.0000      -0.552149       -15.0247
  63   2.0000      -0.526765       -14.3340
  64   2.0000      -0.520081       -14.1521
  65   2.0000      -0.515772       -14.0349
  66   2.0000      -0.505231       -13.7480
  67   2.0000      -0.502693       -13.6790
  68   2.0000      -0.488920       -13.3042
  69   2.0000      -0.469725       -12.7819
  70   2.0000      -0.454546       -12.3688
  71   2.0000      -0.450799       -12.2669
  72   2.0000      -0.357700        -9.7335
  73   2.0000      -0.351858        -9.5745
  74   2.0000      -0.329944        -8.9782
  75   2.0000      -0.324946        -8.8422
  76   2.0000      -0.318962        -8.6794
  77   0.0000       0.085561         2.3282
  78   0.0000       0.104541         2.8447
  79   0.0000       0.112917         3.0726
  80   0.0000       0.128644         3.5006
  81   0.0000       0.130731         3.5574

MULLIKEN ATOMIC CHARGES
-----------------------
   0 C :   -0.261866
   1 C :    0.021280
   2 O :   -0.305751
   3 C :    0.394183
   4 O :   -0.381626
   5 C :   -0.185854
   6 C :    0.140599
   7 C :   -0.326451
   8 N :   -0.139295
   9 C :    0.203976
  10 S :   -0.440636
  11 N :   -0.218420
  12 C :    0.077545
  13 C :    0.022358
  14 C :   -0.198632
  15 C :   -0.132382
  16 C :   -0.274503
  17 C :    0.325161
  18 O :   -0.358185
  19 C :   -0.288855
  20 H :    0.107496
  21 H :    0.100190
  22 H :    0.089105
  23 H :    0.082174
  24 H :    0.113728
  25 H :    0.125009
  26 H :    0.142862
  27 H :    0.118542
  28 H :    0.195793
  29 H :    0.199745
  30 H :    0.165560
  31 H :    0.170388
  32 H :    0.164249
  33 H :    0.132669
  34 H :    0.241522
  35 H :    0.178323
Sum of atomic charges:   -0.0000000

LOEWDIN ATOMIC CHARGES
----------------------
   0 C :    0.112217
   1 C :   -0.025029
   2 O :    0.306976
   3 C :   -0.415709
   4 O :    0.124062
   5 C :   -0.081036
   6 C :   -0.102214
   7 C :    0.122568
   8 N :    0.401583
   9 C :   -0.456027
  10 S :   -0.037518
  11 N :    0.397323
  12 C :   -0.043695
  13 C :   -0.043996
  14 C :    0.022303
  15 C :    0.045922
  16 C :   -0.000180
  17 C :   -0.194430
  18 O :    0.394945
  19 C :    0.025978
  20 H :   -0.022542
  21 H :   -0.026443
  22 H :   -0.025033
  23 H :   -0.038696
  24 H :   -0.030916
  25 H :   -0.008478
  26 H :   -0.008939
  27 H :   -0.017975
  28 H :   -0.057630
  29 H :   -0.063661
  30 H :   -0.002119
  31 H :   -0.021521
  32 H :   -0.018196
  33 H :   -0.034549
  34 H :   -0.152874
  35 H :   -0.024468

  Mayer bond orders larger than 0.100000
B(  0-C ,  1-C ) :   0.9858 B(  0-C , 20-H ) :   0.9789 B(  0-C , 21-H ) :   0.9789
B(  0-C , 22-H ) :   0.9770 B(  1-C ,  2-O ) :   0.9106 B(  1-C , 23-H ) :   0.9702
B(  1-C , 24-H ) :   0.9613 B(  2-O ,  3-C ) :   1.1890 B(  3-C ,  4-O ) :   2.0933
B(  3-C ,  5-C ) :   0.9209 B(  5-C ,  6-C ) :   1.6834 B(  5-C , 12-C ) :   0.9572
B(  6-C ,  7-C ) :   0.9436 B(  6-C ,  8-N ) :   1.1183 B(  7-C , 25-H ) :   0.9810
B(  7-C , 26-H ) :   0.9667 B(  7-C , 27-H ) :   0.9677 B(  8-N ,  9-C ) :   1.1963
B(  8-N , 28-H ) :   0.9526 B(  9-C , 10-S ) :   1.6107 B(  9-C , 11-N ) :   1.2875
B( 11-N , 12-C ) :   0.9941 B( 11-N , 29-H ) :   0.9484 B( 12-C , 13-C ) :   0.9435
B( 12-C , 30-H ) :   0.9971 B( 13-C , 14-C ) :   1.3880 B( 13-C , 19-C ) :   1.3435
B( 14-C , 15-C ) :   1.3976 B( 14-C , 31-H ) :   0.9602 B( 15-C , 16-C ) :   1.3633
B( 15-C , 32-H ) :   0.9697 B( 16-C , 17-C ) :   1.3300 B( 16-C , 33-H ) :   0.9843
B( 17-C , 18-O ) :   1.1090 B( 17-C , 19-C ) :   1.3628 B( 18-O , 34-H ) :   0.9792
B( 19-C , 35-H ) :   0.9589

MP2 TOTAL ENERGY:    -1274.333575008 Eh
FINAL SINGLE POINT ENERGY     -1274.333575008272

DIPOLE MOMENT
-------------
                                X             Y             Z
Electronic contribution:     10.72468       8.34046       7.42691
Nuclear contribution   :    -12.24930      -9.37114      -7.82391
                        -----------------------------------------
Total Dipole Moment    :     -1.52462      -1.03068      -0.39699
                        -----------------------------------------
Magnitude (a.u.)       :      1.88265
Magnitude (Debye)      :      4.78533

Rotational constants in cm-1:     0.011717     0.009108     0.006705
Rotational constants in MHz :   351.271767   273.058853   201.014020

                             ****ORCA TERMINATED NORMALLY****
TOTAL RUN TIME: 0 days 1 hours 50 minutes 31 seconds 384 msec
