                         Program Version 4.2.0 -  RELEASE  -
|  1> ! ri-mp2 cc-pvtz cc-pvtz/c TightSCF  NoKeepInts
|  2>
|  3> %scf
|  4>   MaxCore 4096
|  5> end
|  6> *xyz  0  1
|  7>     C       15.1057201   15.4079123   17.5606117
|  8>     C       15.5817259   15.3661428   16.0955968
|  9>     O       16.9725748   14.9862791   15.9908529
| 10>     C       18.0960439   15.6126231   16.4831704
| 11>     O       19.1472838   14.9989841   16.4884368
| 12>     C       17.9250567   16.8047007   17.3700827
| 13>     C       17.4063289   17.9771540   16.9329379
| 14>     C       16.9573081   18.3177448   15.5282500
| 15>     N       17.3768467   19.0863884   17.7810310
| 16>     C       17.9861352   19.1480053   19.0064524
| 17>     S       17.9781402   20.5314878   19.9118876
| 18>     N       18.6100968   18.0053653   19.4409913
| 19>     C       18.5585667   16.6945676   18.7627617
| 20>     C       17.8667807   15.6416355   19.6276843
| 21>     C       18.3146947   14.3076605   19.5994341
| 22>     C       17.6872193   13.3216411   20.3785103
| 23>     C       16.6009899   13.6700135   21.1983377
| 24>     C       16.1513548   14.9964207   21.2330941
| 25>     O       15.0966230   15.3348278   22.0163765
| 26>     C       16.7777909   15.9763992   20.4564152
| 27>     H       15.5158470   14.5621426   18.1273401
| 28>     H       14.0119613   15.3403668   17.6039354
| 29>     H       15.3910741   16.3410929   18.0562513
| 30>     H       14.9922523   14.6013327   15.5732337
| 31>     H       15.3716154   16.3152407   15.5964068
| 32>     H       17.1825526   17.5185732   14.8115832
| 33>     H       17.4772216   19.2132654   15.1637878
| 34>     H       15.8802396   18.5217619   15.4926664
| 35>     H       16.9470455   19.9433300   17.4697408
| 36>     H       19.0432465   18.0755710   20.3532258
| 37>     H       19.5984451   16.3644109   18.6206661
| 38>     H       19.1499583   14.0305531   18.9594610
| 39>     H       18.0425861   12.2932254   20.3407911
| 40>     H       16.1121735   12.9107519   21.7998074
| 41>     H       14.8301578   14.5406661   22.5037303
| 42>     H       16.4033420   16.9937619   20.4984574
| 43> *
| 44>
| 45>                          ****END OF INPUT****

CARTESIAN COORDINATES (ANGSTROEM)
---------------------------------
  C     15.105720   15.407912   17.560612
  C     15.581726   15.366143   16.095597
  O     16.972575   14.986279   15.990853
  C     18.096044   15.612623   16.483170
  O     19.147284   14.998984   16.488437
  C     17.925057   16.804701   17.370083
  C     17.406329   17.977154   16.932938
  C     16.957308   18.317745   15.528250
  N     17.376847   19.086388   17.781031
  C     17.986135   19.148005   19.006452
  S     17.978140   20.531488   19.911888
  N     18.610097   18.005365   19.440991
  C     18.558567   16.694568   18.762762
  C     17.866781   15.641635   19.627684
  C     18.314695   14.307660   19.599434
  C     17.687219   13.321641   20.378510
  C     16.600990   13.670013   21.198338
  C     16.151355   14.996421   21.233094
  O     15.096623   15.334828   22.016376
  C     16.777791   15.976399   20.456415
  H     15.515847   14.562143   18.127340
  H     14.011961   15.340367   17.603935
  H     15.391074   16.341093   18.056251
  H     14.992252   14.601333   15.573234
  H     15.371615   16.315241   15.596407
  H     17.182553   17.518573   14.811583
  H     17.477222   19.213265   15.163788
  H     15.880240   18.521762   15.492666
  H     16.947046   19.943330   17.469741
  H     19.043246   18.075571   20.353226
  H     19.598445   16.364411   18.620666
  H     19.149958   14.030553   18.959461
  H     18.042586   12.293225   20.340791
  H     16.112174   12.910752   21.799807
  H     14.830158   14.540666   22.503730
  H     16.403342   16.993762   20.498457

 Total Charge           Charge          ....    0
 Multiplicity           Mult            ....    1
 Number of Electrons    NEL             ....  154
 Basis Dimension        Dim             ....  828

ORBITAL ENERGIES
----------------

  NO   OCC          E(Eh)            E(eV)
   0   2.0000     -91.890653     -2500.4718
   1   2.0000     -20.600132      -560.5581
   2   2.0000     -20.597374      -560.4830
   3   2.0000     -20.548880      -559.1635
   4   2.0000     -15.628225      -425.2656
   5   2.0000     -15.611498      -424.8105
   6   2.0000     -11.400942      -310.2354
   7   2.0000     -11.387096      -309.8586
   8   2.0000     -11.331943      -308.3578
   9   2.0000     -11.314680      -307.8881
  10   2.0000     -11.313916      -307.8673
  11   2.0000     -11.308698      -307.7253
  12   2.0000     -11.271848      -306.7226
  13   2.0000     -11.268170      -306.6225
  14   2.0000     -11.261750      -306.4478
  15   2.0000     -11.254410      -306.2481
  16   2.0000     -11.243749      -305.9580
  17   2.0000     -11.239223      -305.8348
  18   2.0000     -11.235998      -305.7470
  19   2.0000     -11.228714      -305.5489
  20   2.0000      -8.895760      -242.0659
  21   2.0000      -6.577349      -178.9788
  22   2.0000      -6.575321      -178.9236
  23   2.0000      -6.574745      -178.9079
  24   2.0000      -1.445456       -39.3329
  25   2.0000      -1.417197       -38.5639
  26   2.0000      -1.357538       -36.9405
  27   2.0000      -1.341742       -36.5107
  28   2.0000      -1.240824       -33.7645
  29   2.0000      -1.158877       -31.5346
  30   2.0000      -1.125538       -30.6274
  31   2.0000      -1.047911       -28.5151
  32   2.0000      -1.038671       -28.2637
  33   2.0000      -1.017230       -27.6802
  34   2.0000      -1.006125       -27.3780
  35   2.0000      -0.990347       -26.9487
  36   2.0000      -0.928171       -25.2568
  37   2.0000      -0.896494       -24.3948
  38   2.0000      -0.855517       -23.2798
  39   2.0000      -0.840861       -22.8810
  40   2.0000      -0.834281       -22.7020
  41   2.0000      -0.830020       -22.5860
  42   2.0000      -0.747875       -20.3507
  43   2.0000      -0.740429       -20.1481
  44   2.0000      -0.730458       -19.8768
  45   2.0000      -0.695320       -18.9206
  46   2.0000      -0.687383       -18.7046
  47   2.0000      -0.679574       -18.4921
  48   2.0000      -0.675324       -18.3765
  49   2.0000      -0.662939       -18.0395
  50   2.0000      -0.652603       -17.7582
  51   2.0000      -0.648529       -17.6474
  52   2.0000      -0.639864       -17.4116
  53   2.0000      -0.618617       -16.8334
  54   2.0000      -0.610968       -16.6253
  55   2.0000      -0.605920       -16.4879
  56   2.0000      -0.601803       -16.3759
  57   2.0000      -0.590638       -16.0721
  58   2.0000      -0.578450       -15.7404
  59   2.0000      -0.571178       -15.5425
  60   2.0000      -0.565845       -15.3974
  61   2.0000      -0.555947       -15.1281
  62   2.0000      -0.539413       -14.6782
  63   2.0000      -0.532113       -14.4795
  64   2.0000      -0.519509       -14.1366
  65   2.0000      -0.512922       -13.9573
  66   2.0000      -0.502581       -13.6759
  67   2.0000      -0.501239       -13.6394
  68   2.0000      -0.483040       -13.1442
  69   2.0000      -0.465622       -12.6702
  70   2.0000      -0.454612       -12.3706
  71   2.0000      -0.450911       -12.2699
  72   2.0000      -0.358009        -9.7419
  73   2.0000      -0.348131        -9.4731
  74   2.0000      -0.330258        -8.9868
  75   2.0000      -0.322917        -8.7870
  76   2.0000      -0.319226        -8.6866
  77   0.0000       0.083547         2.2734
  78   0.0000       0.107525         2.9259
  79   0.0000       0.112413         3.0589
  80   0.0000       0.130370         3.5475
  81   0.0000       0.131051         3.5661

MULLIKEN ATOMIC CHARGES
-----------------------
   0 C :   -0.324195
   1 C :    0.016554
   2 O :   -0.320794
   3 C :    0.419784
   4 O :   -0.385510
   5 C :   -0.219251
   6 C :    0.154778
   7 C :   -0.334306
   8 N :   -0.137785
   9 C :    0.203523
  10 S :   -0.440320
  11 N :   -0.226631
  12 C :    0.092059
  13 C :    0.018665
  14 C :   -0.212329
  15 C :   -0.136011
  16 C :   -0.278328
  17 C :    0.320860
  18 O :   -0.358508
  19 C :   -0.272570
  20 H :    0.128002
  21 H :    0.114495
  22 H :    0.107125
  23 H :    0.132437
  24 H :    0.088266
  25 H :    0.127067
  26 H :    0.142111
  27 H :    0.120738
  28 H :    0.196557
  29 H :    0.202676
  30 H :    0.167982
  31 H :    0.176697
  32 H :    0.163966
  33 H :    0.131903
  34 H :    0.241024
  35 H :    0.179269
Sum of atomic charges:   -0.0000000

LOEWDIN ATOMIC CHARGES
----------------------
   0 C :    0.103478
   1 C :   -0.020062
   2 O :    0.300773
   3 C :   -0.414257
   4 O :    0.122534
   5 C :   -0.077855
   6 C :   -0.099414
   7 C :    0.121613
   8 N :    0.402231
   9 C :   -0.458258
  10 S :   -0.037287
  11 N :    0.398461
  12 C :   -0.042035
  13 C :   -0.042203
  14 C :    0.020472
  15 C :    0.043085
  16 C :   -0.001751
  17 C :   -0.193499
  18 O :    0.395331
  19 C :    0.028626
  20 H :   -0.017876
  21 H :   -0.025155
  22 H :   -0.036125
  23 H :   -0.018033
  24 H :   -0.040331
  25 H :   -0.008483
  26 H :   -0.008271
  27 H :   -0.018343
  28 H :   -0.057507
  29 H :   -0.063186
  30 H :   -0.001569
  31 H :   -0.021964
  32 H :   -0.018639
  33 H :   -0.035007
  34 H :   -0.153577
  35 H :   -0.025917

  Mayer bond orders larger than 0.100000
B(  0-C ,  1-C ) :   0.9535 B(  0-C , 20-H ) :   0.9681 B(  0-C , 21-H ) :   0.9767
B(  0-C , 22-H ) :   0.9723 B(  1-C ,  2-O ) :   0.9070 B(  1-C , 23-H ) :   0.9834
B(  1-C , 24-H ) :   0.9737 B(  2-O ,  3-C ) :   1.1810 B(  3-C ,  4-O ) :   2.0772
B(  3-C ,  5-C ) :   0.9248 B(  5-C ,  6-C ) :   1.6925 B(  5-C , 12-C ) :   0.9489
B(  6-C ,  7-C ) :   0.9451 B(  6-C ,  8-N ) :   1.1063 B(  7-C , 25-H ) :   0.9810
B(  7-C , 26-H ) :   0.9688 B(  7-C , 27-H ) :   0.9666 B(  8-N ,  9-C ) :   1.1956
B(  8-N , 28-H ) :   0.9525 B(  9-C , 10-S ) :   1.6091 B(  9-C , 11-N ) :   1.2888
B( 11-N , 12-C ) :   0.9879 B( 11-N , 29-H ) :   0.9477 B( 12-C , 13-C ) :   0.9524
B( 12-C , 30-H ) :   0.9947 B( 13-C , 14-C ) :   1.3906 B( 13-C , 19-C ) :   1.3370
B( 14-C , 15-C ) :   1.4019 B( 14-C , 31-H ) :   0.9575 B( 15-C , 16-C ) :   1.3577
B( 15-C , 32-H ) :   0.9702 B( 16-C , 17-C ) :   1.3313 B( 16-C , 33-H ) :   0.9849
B( 17-C , 18-O ) :   1.1090 B( 17-C , 19-C ) :   1.3686 B( 18-O , 34-H ) :   0.9797
B( 19-C , 35-H ) :   0.9564

MP2 TOTAL ENERGY:    -1274.328332006 Eh
FINAL SINGLE POINT ENERGY     -1274.328332005774

DIPOLE MOMENT
-------------
                                X             Y             Z
Electronic contribution:      8.95125       6.23457       6.23263
Nuclear contribution   :    -10.46241      -7.22238      -6.93543
                        -----------------------------------------
Total Dipole Moment    :     -1.51116      -0.98780      -0.70280
                        -----------------------------------------
Magnitude (a.u.)       :      1.93734
Magnitude (Debye)      :      4.92433

Rotational constants in cm-1:     0.011869     0.009575     0.006795
Rotational constants in MHz :   355.813266   287.056016   203.697382

                             ****ORCA TERMINATED NORMALLY****
TOTAL RUN TIME: 0 days 1 hours 49 minutes 32 seconds 803 msec
