                         Program Version 4.2.0 -  RELEASE  -
|  1> ! ri-mp2 cc-pvtz cc-pvtz/c TightSCF  NoKeepInts
|  2>
|  3> %scf
|  4>   MaxCore 4096
|  5> end
|  6> *xyz  0  1
|  7>     C       15.1504644   15.4956887   17.4177190
|  8>     C       15.5222449   15.3143545   15.9303304
|  9>     O       16.9434827   15.3056511   15.6312059
| 10>     C       18.0028306   15.5885392   16.4594007
| 11>     O       18.9313129   14.8040858   16.5296286
| 12>     C       17.9196245   16.7741927   17.3760870
| 13>     C       17.3711795   17.9639195   17.0216257
| 14>     C       16.7629553   18.3483387   15.6891303
| 15>     N       17.4270599   19.0466654   17.9034343
| 16>     C       18.1646524   19.0770581   19.0572080
| 17>     S       18.2719295   20.4413240   19.9853276
| 18>     N       18.8110054   17.9167781   19.4014064
| 19>     C       18.6392431   16.6178507   18.7215991
| 20>     C       17.9232407   15.6166008   19.6249352
| 21>     C       18.3565079   14.2788363   19.6772922
| 22>     C       17.6978587   13.3422486   20.4910460
| 23>     C       16.5941961   13.7448326   21.2616495
| 24>     C       16.1573928   15.0752442   21.2125734
| 25>     O       15.0850418   15.4649901   21.9465605
| 26>     C       16.8148217   16.0056718   20.4015288
| 27>     H       15.7263056   14.8077316   18.0484913
| 28>     H       14.0901805   15.2562350   17.5641343
| 29>     H       15.2926910   16.5217177   17.7694317
| 30>     H       15.1071017   14.3558511   15.5921151
| 31>     H       15.0263320   16.0931101   15.3383988
| 32>     H       17.1285831   17.7151374   14.8718850
| 33>     H       17.0238442   19.3784692   15.4149118
| 34>     H       15.6695731   18.2801472   15.7190199
| 35>     H       16.9722715   19.9126165   17.6605135
| 36>     H       19.3351557   17.9602939   20.2662127
| 37>     H       19.6449547   16.2221389   18.5161315
| 38>     H       19.2022716   13.9600520   19.0714716
| 39>     H       18.0418590   12.3096315   20.5173152
| 40>     H       16.0812681   13.0237174   21.8894235
| 41>     H       14.8036823   14.7038796   22.4764321
| 42>     H       16.4538813   17.0284002   20.3784236
| 43> *
| 44>
| 45>                          ****END OF INPUT****

CARTESIAN COORDINATES (ANGSTROEM)
---------------------------------
  C     15.150464   15.495689   17.417719
  C     15.522245   15.314355   15.930330
  O     16.943483   15.305651   15.631206
  C     18.002831   15.588539   16.459401
  O     18.931313   14.804086   16.529629
  C     17.919624   16.774193   17.376087
  C     17.371180   17.963919   17.021626
  C     16.762955   18.348339   15.689130
  N     17.427060   19.046665   17.903434
  C     18.164652   19.077058   19.057208
  S     18.271929   20.441324   19.985328
  N     18.811005   17.916778   19.401406
  C     18.639243   16.617851   18.721599
  C     17.923241   15.616601   19.624935
  C     18.356508   14.278836   19.677292
  C     17.697859   13.342249   20.491046
  C     16.594196   13.744833   21.261649
  C     16.157393   15.075244   21.212573
  O     15.085042   15.464990   21.946561
  C     16.814822   16.005672   20.401529
  H     15.726306   14.807732   18.048491
  H     14.090181   15.256235   17.564134
  H     15.292691   16.521718   17.769432
  H     15.107102   14.355851   15.592115
  H     15.026332   16.093110   15.338399
  H     17.128583   17.715137   14.871885
  H     17.023844   19.378469   15.414912
  H     15.669573   18.280147   15.719020
  H     16.972272   19.912616   17.660514
  H     19.335156   17.960294   20.266213
  H     19.644955   16.222139   18.516132
  H     19.202272   13.960052   19.071472
  H     18.041859   12.309632   20.517315
  H     16.081268   13.023717   21.889423
  H     14.803682   14.703880   22.476432
  H     16.453881   17.028400   20.378424

 Total Charge           Charge          ....    0
 Multiplicity           Mult            ....    1
 Number of Electrons    NEL             ....  154
 Basis Dimension        Dim             ....  828

ORBITAL ENERGIES
----------------

  NO   OCC          E(Eh)            E(eV)
   0   2.0000     -91.891063     -2500.4829
   1   2.0000     -20.597280      -560.4805
   2   2.0000     -20.592832      -560.3594
   3   2.0000     -20.548079      -559.1417
   4   2.0000     -15.630363      -425.3238
   5   2.0000     -15.610395      -424.7804
   6   2.0000     -11.398768      -310.1762
   7   2.0000     -11.386710      -309.8481
   8   2.0000     -11.335964      -308.4673
   9   2.0000     -11.313678      -307.8608
  10   2.0000     -11.311952      -307.8139
  11   2.0000     -11.310850      -307.7839
  12   2.0000     -11.267046      -306.5919
  13   2.0000     -11.265435      -306.5481
  14   2.0000     -11.260062      -306.4019
  15   2.0000     -11.254053      -306.2384
  16   2.0000     -11.243571      -305.9531
  17   2.0000     -11.238908      -305.8262
  18   2.0000     -11.235651      -305.7376
  19   2.0000     -11.235091      -305.7224
  20   2.0000      -8.896142      -242.0763
  21   2.0000      -6.577723      -178.9889
  22   2.0000      -6.575706      -178.9341
  23   2.0000      -6.575123      -178.9182
  24   2.0000      -1.442341       -39.2481
  25   2.0000      -1.417098       -38.5612
  26   2.0000      -1.354622       -36.8611
  27   2.0000      -1.342562       -36.5330
  28   2.0000      -1.240630       -33.7593
  29   2.0000      -1.158240       -31.5173
  30   2.0000      -1.123831       -30.5810
  31   2.0000      -1.046347       -28.4726
  32   2.0000      -1.039747       -28.2929
  33   2.0000      -1.016295       -27.6548
  34   2.0000      -1.005108       -27.3504
  35   2.0000      -0.989644       -26.9296
  36   2.0000      -0.927504       -25.2387
  37   2.0000      -0.900620       -24.5071
  38   2.0000      -0.854050       -23.2399
  39   2.0000      -0.840907       -22.8822
  40   2.0000      -0.834030       -22.6951
  41   2.0000      -0.825642       -22.4669
  42   2.0000      -0.745010       -20.2728
  43   2.0000      -0.732722       -19.9384
  44   2.0000      -0.730167       -19.8688
  45   2.0000      -0.694783       -18.9060
  46   2.0000      -0.686884       -18.6911
  47   2.0000      -0.679698       -18.4955
  48   2.0000      -0.674418       -18.3519
  49   2.0000      -0.662017       -18.0144
  50   2.0000      -0.656404       -17.8617
  51   2.0000      -0.651693       -17.7335
  52   2.0000      -0.642127       -17.4732
  53   2.0000      -0.620453       -16.8834
  54   2.0000      -0.607638       -16.5347
  55   2.0000      -0.605047       -16.4642
  56   2.0000      -0.601713       -16.3734
  57   2.0000      -0.587302       -15.9813
  58   2.0000      -0.576037       -15.6748
  59   2.0000      -0.565380       -15.3848
  60   2.0000      -0.564555       -15.3623
  61   2.0000      -0.553473       -15.0608
  62   2.0000      -0.544396       -14.8138
  63   2.0000      -0.532972       -14.5029
  64   2.0000      -0.522368       -14.2144
  65   2.0000      -0.513406       -13.9705
  66   2.0000      -0.500781       -13.6270
  67   2.0000      -0.491293       -13.3688
  68   2.0000      -0.484254       -13.1772
  69   2.0000      -0.471606       -12.8331
  70   2.0000      -0.456973       -12.4349
  71   2.0000      -0.447660       -12.1814
  72   2.0000      -0.356930        -9.7126
  73   2.0000      -0.348463        -9.4821
  74   2.0000      -0.330423        -8.9913
  75   2.0000      -0.322365        -8.7720
  76   2.0000      -0.318960        -8.6794
  77   0.0000       0.075791         2.0624
  78   0.0000       0.107890         2.9358
  79   0.0000       0.115806         3.1512
  80   0.0000       0.131217         3.5706
  81   0.0000       0.132809         3.6139

MULLIKEN ATOMIC CHARGES
-----------------------
   0 C :   -0.346724
   1 C :    0.039529
   2 O :   -0.348983
   3 C :    0.446630
   4 O :   -0.386000
   5 C :   -0.215853
   6 C :    0.146001
   7 C :   -0.336165
   8 N :   -0.132349
   9 C :    0.193531
  10 S :   -0.437395
  11 N :   -0.211008
  12 C :    0.064562
  13 C :    0.023898
  14 C :   -0.196422
  15 C :   -0.134960
  16 C :   -0.278658
  17 C :    0.315961
  18 O :   -0.358661
  19 C :   -0.269304
  20 H :    0.130911
  21 H :    0.124019
  22 H :    0.110056
  23 H :    0.128039
  24 H :    0.090472
  25 H :    0.145034
  26 H :    0.129933
  27 H :    0.119653
  28 H :    0.197897
  29 H :    0.198083
  30 H :    0.164312
  31 H :    0.173006
  32 H :    0.163325
  33 H :    0.131730
  34 H :    0.241030
  35 H :    0.174871
Sum of atomic charges:   -0.0000000

LOEWDIN ATOMIC CHARGES
----------------------
   0 C :    0.104519
   1 C :   -0.014931
   2 O :    0.286516
   3 C :   -0.417529
   4 O :    0.122471
   5 C :   -0.086151
   6 C :   -0.083819
   7 C :    0.126930
   8 N :    0.404023
   9 C :   -0.459769
  10 S :   -0.035177
  11 N :    0.398079
  12 C :   -0.044313
  13 C :   -0.043669
  14 C :    0.019644
  15 C :    0.042262
  16 C :   -0.001924
  17 C :   -0.194236
  18 O :    0.394773
  19 C :    0.029326
  20 H :   -0.019698
  21 H :   -0.020840
  22 H :   -0.035349
  23 H :   -0.020045
  24 H :   -0.035476
  25 H :   -0.006462
  26 H :   -0.012295
  27 H :   -0.018236
  28 H :   -0.057475
  29 H :   -0.063181
  30 H :   -0.002391
  31 H :   -0.022187
  32 H :   -0.019087
  33 H :   -0.035147
  34 H :   -0.153726
  35 H :   -0.025429

  Mayer bond orders larger than 0.100000
B(  0-C ,  1-C ) :   0.9621 B(  0-C , 20-H ) :   0.9663 B(  0-C , 21-H ) :   0.9762
B(  0-C , 22-H ) :   0.9709 B(  1-C ,  2-O ) :   0.8991 B(  1-C , 23-H ) :   0.9805
B(  1-C , 24-H ) :   0.9761 B(  2-O ,  3-C ) :   1.1557 B(  3-C ,  4-O ) :   2.0702
B(  3-C ,  5-C ) :   0.9510 B(  5-C ,  6-C ) :   1.6815 B(  5-C , 12-C ) :   0.9595
B(  6-C ,  7-C ) :   0.9432 B(  6-C ,  8-N ) :   1.1172 B(  7-C , 25-H ) :   0.9720
B(  7-C , 26-H ) :   0.9807 B(  7-C , 27-H ) :   0.9642 B(  8-N ,  9-C ) :   1.1862
B(  8-N , 28-H ) :   0.9506 B(  9-C , 10-S ) :   1.6138 B(  9-C , 11-N ) :   1.2937
B( 11-N , 12-C ) :   0.9886 B( 11-N , 29-H ) :   0.9505 B( 12-C , 13-C ) :   0.9457
B( 12-C , 30-H ) :   0.9973 B( 13-C , 14-C ) :   1.3907 B( 13-C , 19-C ) :   1.3457
B( 14-C , 15-C ) :   1.3968 B( 14-C , 31-H ) :   0.9580 B( 15-C , 16-C ) :   1.3610
B( 15-C , 32-H ) :   0.9705 B( 16-C , 17-C ) :   1.3294 B( 16-C , 33-H ) :   0.9848
B( 17-C , 18-O ) :   1.1108 B( 17-C , 19-C ) :   1.3731 B( 18-O , 34-H ) :   0.9798
B( 19-C , 35-H ) :   0.9577

MP2 TOTAL ENERGY:    -1274.329317529 Eh
FINAL SINGLE POINT ENERGY     -1274.329317528635

DIPOLE MOMENT
-------------
                                X             Y             Z
Electronic contribution:      9.64620       6.21720       6.22718
Nuclear contribution   :    -11.27551      -7.21831      -6.76208
                        -----------------------------------------
Total Dipole Moment    :     -1.62931      -1.00112      -0.53490
                        -----------------------------------------
Magnitude (a.u.)       :      1.98570
Magnitude (Debye)      :      5.04725

Rotational constants in cm-1:     0.011423     0.009794     0.006825
Rotational constants in MHz :   342.455211   293.606689   204.621073

                             ****ORCA TERMINATED NORMALLY****
TOTAL RUN TIME: 0 days 2 hours 5 minutes 50 seconds 626 msec
