                         Program Version 4.2.0 -  RELEASE  -
|  1> ! ri-mp2 cc-pvtz cc-pvtz/c TightSCF  NoKeepInts
|  2>
|  3> %scf
|  4>   MaxCore 4096
|  5> end
|  6> *xyz  0  1
|  7>     C       15.4225808   14.0601979   14.9925088
|  8>     C       15.6659719   14.1201072   16.5155320
|  9>     O       16.6853435   15.0909954   16.8235973
| 10>     C       16.4405889   16.4354606   16.7362674
| 11>     O       15.4537688   16.8924355   16.1855320
| 12>     C       17.3843772   17.2451326   17.5832950
| 13>     C       17.3365878   18.6009256   17.6334523
| 14>     C       16.3808773   19.5133768   16.8946359
| 15>     N       18.2668507   19.3075470   18.4017141
| 16>     C       19.3363369   18.7474980   19.0478870
| 17>     S       20.4531600   19.6664570   19.8504958
| 18>     N       19.4377029   17.3809434   18.9917841
| 19>     C       18.4239311   16.4775932   18.4173867
| 20>     C       17.7721129   15.6625630   19.5311660
| 21>     C       17.9886552   14.2744523   19.6194637
| 22>     C       17.3885396   13.5206775   20.6421645
| 23>     C       16.5673870   14.1600937   21.5865204
| 24>     C       16.3532620   15.5428681   21.5043412
| 25>     O       15.5621310   16.1632806   22.4155212
| 26>     C       16.9515411   16.2902419   20.4852514
| 27>     H       14.9470598   14.9759440   14.6217183
| 28>     H       14.7610298   13.2208477   14.7468252
| 29>     H       16.3678393   13.9180569   14.4545417
| 30>     H       14.7321582   14.3653303   17.0395013
| 31>     H       15.9986866   13.1331026   16.8613041
| 32>     H       15.3473152   19.3253128   17.2126791
| 33>     H       16.4286205   19.3300407   15.8137358
| 34>     H       16.5899309   20.5770388   17.0580460
| 35>     H       18.2086143   20.3120514   18.4528161
| 36>     H       20.2160154   16.9942383   19.5099337
| 37>     H       18.9482635   15.7865572   17.7424867
| 38>     H       18.6195555   13.7770871   18.8877043
| 39>     H       17.5608954   12.4474450   20.7011445
| 40>     H       16.1022398   13.5826020   22.3786112
| 41>     H       15.2682189   15.4932596   23.0506722
| 42>     H       16.7788505   17.3602384   20.4437627
| 43> *
| 44>
| 45>                          ****END OF INPUT****

CARTESIAN COORDINATES (ANGSTROEM)
---------------------------------
  C     15.422581   14.060198   14.992509
  C     15.665972   14.120107   16.515532
  O     16.685343   15.090995   16.823597
  C     16.440589   16.435461   16.736267
  O     15.453769   16.892436   16.185532
  C     17.384377   17.245133   17.583295
  C     17.336588   18.600926   17.633452
  C     16.380877   19.513377   16.894636
  N     18.266851   19.307547   18.401714
  C     19.336337   18.747498   19.047887
  S     20.453160   19.666457   19.850496
  N     19.437703   17.380943   18.991784
  C     18.423931   16.477593   18.417387
  C     17.772113   15.662563   19.531166
  C     17.988655   14.274452   19.619464
  C     17.388540   13.520677   20.642164
  C     16.567387   14.160094   21.586520
  C     16.353262   15.542868   21.504341
  O     15.562131   16.163281   22.415521
  C     16.951541   16.290242   20.485251
  H     14.947060   14.975944   14.621718
  H     14.761030   13.220848   14.746825
  H     16.367839   13.918057   14.454542
  H     14.732158   14.365330   17.039501
  H     15.998687   13.133103   16.861304
  H     15.347315   19.325313   17.212679
  H     16.428621   19.330041   15.813736
  H     16.589931   20.577039   17.058046
  H     18.208614   20.312051   18.452816
  H     20.216015   16.994238   19.509934
  H     18.948263   15.786557   17.742487
  H     18.619556   13.777087   18.887704
  H     17.560895   12.447445   20.701144
  H     16.102240   13.582602   22.378611
  H     15.268219   15.493260   23.050672
  H     16.778851   17.360238   20.443763

 Total Charge           Charge          ....    0
 Multiplicity           Mult            ....    1
 Number of Electrons    NEL             ....  154
 Basis Dimension        Dim             ....  828

ORBITAL ENERGIES
----------------

  NO   OCC          E(Eh)            E(eV)
   0   2.0000     -91.888533     -2500.4141
   1   2.0000     -20.599949      -560.5531
   2   2.0000     -20.595722      -560.4381
   3   2.0000     -20.542883      -559.0003
   4   2.0000     -15.628748      -425.2798
   5   2.0000     -15.607776      -424.7092
   6   2.0000     -11.396329      -310.1099
   7   2.0000     -11.383583      -309.7630
   8   2.0000     -11.335502      -308.4547
   9   2.0000     -11.312790      -307.8367
  10   2.0000     -11.308528      -307.7207
  11   2.0000     -11.299287      -307.4692
  12   2.0000     -11.258858      -306.3691
  13   2.0000     -11.258758      -306.3664
  14   2.0000     -11.254314      -306.2454
  15   2.0000     -11.251980      -306.1819
  16   2.0000     -11.242000      -305.9104
  17   2.0000     -11.237409      -305.7854
  18   2.0000     -11.237221      -305.7803
  19   2.0000     -11.221232      -305.3453
  20   2.0000      -8.893595      -242.0070
  21   2.0000      -6.575170      -178.9195
  22   2.0000      -6.573166      -178.8649
  23   2.0000      -6.572579      -178.8490
  24   2.0000      -1.449930       -39.4546
  25   2.0000      -1.415362       -38.5140
  26   2.0000      -1.355451       -36.8837
  27   2.0000      -1.339717       -36.4556
  28   2.0000      -1.238097       -33.6903
  29   2.0000      -1.156639       -31.4738
  30   2.0000      -1.119782       -30.4708
  31   2.0000      -1.041991       -28.3540
  32   2.0000      -1.035425       -28.1754
  33   2.0000      -1.014090       -27.5948
  34   2.0000      -0.994733       -27.0681
  35   2.0000      -0.983341       -26.7581
  36   2.0000      -0.921989       -25.0886
  37   2.0000      -0.893609       -24.3163
  38   2.0000      -0.846823       -23.0432
  39   2.0000      -0.837206       -22.7815
  40   2.0000      -0.833107       -22.6700
  41   2.0000      -0.818726       -22.2787
  42   2.0000      -0.754525       -20.5317
  43   2.0000      -0.731035       -19.8925
  44   2.0000      -0.722055       -19.6481
  45   2.0000      -0.694928       -18.9099
  46   2.0000      -0.688057       -18.7230
  47   2.0000      -0.680595       -18.5199
  48   2.0000      -0.670016       -18.2321
  49   2.0000      -0.652456       -17.7542
  50   2.0000      -0.648790       -17.6545
  51   2.0000      -0.645156       -17.5556
  52   2.0000      -0.631638       -17.1878
  53   2.0000      -0.608915       -16.5694
  54   2.0000      -0.605774       -16.4839
  55   2.0000      -0.598764       -16.2932
  56   2.0000      -0.598068       -16.2743
  57   2.0000      -0.580045       -15.7838
  58   2.0000      -0.572731       -15.5848
  59   2.0000      -0.570531       -15.5249
  60   2.0000      -0.562675       -15.3112
  61   2.0000      -0.538577       -14.6554
  62   2.0000      -0.536519       -14.5994
  63   2.0000      -0.524306       -14.2671
  64   2.0000      -0.521560       -14.1924
  65   2.0000      -0.512949       -13.9581
  66   2.0000      -0.500980       -13.6324
  67   2.0000      -0.498781       -13.5725
  68   2.0000      -0.484969       -13.1967
  69   2.0000      -0.463731       -12.6188
  70   2.0000      -0.455848       -12.4042
  71   2.0000      -0.444323       -12.0906
  72   2.0000      -0.353905        -9.6302
  73   2.0000      -0.348475        -9.4825
  74   2.0000      -0.327861        -8.9216
  75   2.0000      -0.320414        -8.7189
  76   2.0000      -0.315574        -8.5872
  77   0.0000       0.076058         2.0697
  78   0.0000       0.107731         2.9315
  79   0.0000       0.125334         3.4105
  80   0.0000       0.132977         3.6185
  81   0.0000       0.137666         3.7461

MULLIKEN ATOMIC CHARGES
-----------------------
   0 C :   -0.294084
   1 C :    0.045633
   2 O :   -0.357006
   3 C :    0.462175
   4 O :   -0.435452
   5 C :   -0.205978
   6 C :    0.148516
   7 C :   -0.274787
   8 N :   -0.120251
   9 C :    0.211412
  10 S :   -0.440310
  11 N :   -0.203628
  12 C :    0.051098
  13 C :    0.070093
  14 C :   -0.184867
  15 C :   -0.130998
  16 C :   -0.278943
  17 C :    0.315593
  18 O :   -0.356756
  19 C :   -0.269678
  20 H :    0.124242
  21 H :    0.093856
  22 H :    0.090357
  23 H :    0.093262
  24 H :    0.105092
  25 H :    0.132876
  26 H :    0.129258
  27 H :    0.095420
  28 H :    0.197195
  29 H :    0.194321
  30 H :    0.149679
  31 H :    0.148266
  32 H :    0.159841
  33 H :    0.129476
  34 H :    0.240585
  35 H :    0.164491
Sum of atomic charges:    0.0000000

LOEWDIN ATOMIC CHARGES
----------------------
   0 C :    0.104870
   1 C :   -0.013669
   2 O :    0.303388
   3 C :   -0.412129
   4 O :    0.101390
   5 C :   -0.093744
   6 C :   -0.059253
   7 C :    0.131104
   8 N :    0.406479
   9 C :   -0.456613
  10 S :   -0.035729
  11 N :    0.396426
  12 C :   -0.052531
  13 C :   -0.038001
  14 C :    0.013983
  15 C :    0.038647
  16 C :   -0.002055
  17 C :   -0.189452
  18 O :    0.395095
  19 C :    0.031332
  20 H :   -0.026185
  21 H :   -0.028557
  22 H :   -0.030112
  23 H :   -0.028023
  24 H :   -0.025221
  25 H :   -0.004599
  26 H :   -0.004437
  27 H :   -0.023385
  28 H :   -0.057648
  29 H :   -0.064676
  30 H :   -0.010807
  31 H :   -0.030485
  32 H :   -0.021620
  33 H :   -0.035800
  34 H :   -0.154059
  35 H :   -0.023924

  Mayer bond orders larger than 0.100000
B(  0-C ,  1-C ) :   0.9729 B(  0-C , 20-H ) :   0.9724 B(  0-C , 21-H ) :   0.9779
B(  0-C , 22-H ) :   0.9756 B(  1-C ,  2-O ) :   0.8964 B(  1-C , 23-H ) :   0.9749
B(  1-C , 24-H ) :   0.9831 B(  2-O ,  3-C ) :   1.1540 B(  3-C ,  4-O ) :   1.9544
B(  3-C ,  5-C ) :   1.0620 B(  5-C ,  6-C ) :   1.6565 B(  5-C , 12-C ) :   0.9739
B(  6-C ,  7-C ) :   0.9676 B(  6-C ,  8-N ) :   1.1632 B(  7-C , 25-H ) :   0.9598
B(  7-C , 26-H ) :   0.9609 B(  7-C , 27-H ) :   0.9909 B(  8-N ,  9-C ) :   1.1826
B(  8-N , 28-H ) :   0.9480 B(  9-C , 10-S ) :   1.6071 B(  9-C , 11-N ) :   1.3052
B( 11-N , 12-C ) :   0.9861 B( 11-N , 29-H ) :   0.9518 B( 12-C , 13-C ) :   0.9364
B( 12-C , 30-H ) :   1.0026 B( 13-C , 14-C ) :   1.3552 B( 13-C , 19-C ) :   1.3831
B( 14-C , 15-C ) :   1.3919 B( 14-C , 31-H ) :   0.9719 B( 15-C , 16-C ) :   1.3643
B( 15-C , 32-H ) :   0.9708 B( 16-C , 17-C ) :   1.3317 B( 16-C , 33-H ) :   0.9852
B( 17-C , 18-O ) :   1.1100 B( 17-C , 19-C ) :   1.3731 B( 18-O , 34-H ) :   0.9800
B( 19-C , 35-H ) :   0.9583

MP2 TOTAL ENERGY:    -1274.346510466 Eh
FINAL SINGLE POINT ENERGY     -1274.346510465617

DIPOLE MOMENT
-------------
                                X             Y             Z
Electronic contribution:     10.08410       9.60965       9.75373
Nuclear contribution   :    -11.19200     -11.26668     -10.06544
                        -----------------------------------------
Total Dipole Moment    :     -1.10789      -1.65703      -0.31171
                        -----------------------------------------
Magnitude (a.u.)       :      2.01751
Magnitude (Debye)      :      5.12809

Rotational constants in cm-1:     0.011110     0.008796     0.006033
Rotational constants in MHz :   333.069278   263.708726   180.873206

                             ****ORCA TERMINATED NORMALLY****
TOTAL RUN TIME: 0 days 1 hours 44 minutes 22 seconds 27 msec
