                         Program Version 4.2.0 -  RELEASE  -
|  1> ! ri-mp2 cc-pvtz cc-pvtz/c TightSCF  NoKeepInts
|  2>
|  3> %scf
|  4>   MaxCore 4096
|  5> end
|  6> *xyz  0  1
|  7>     C       14.8444925   14.0963786   15.9052866
|  8>     C       15.7473615   14.9767944   15.0163088
|  9>     O       16.3146679   16.0385836   15.8080614
| 10>     C       17.2789081   15.7715305   16.7384462
| 11>     O       17.8039246   14.6740543   16.8376720
| 12>     C       17.6924037   16.9411728   17.5889799
| 13>     C       17.2751122   18.2258025   17.4280837
| 14>     C       16.3164429   18.7820355   16.3947703
| 15>     N       17.7903295   19.2309635   18.2541488
| 16>     C       18.8150740   19.0653248   19.1476969
| 17>     S       19.4543324   20.3386010   19.9878265
| 18>     N       19.2820406   17.7862869   19.3093334
| 19>     C       18.6612614   16.5841067   18.7230449
| 20>     C       17.9629392   15.7621113   19.8036382
| 21>     C       18.2765467   14.4013502   19.9773592
| 22>     C       17.6347327   13.6384634   20.9672921
| 23>     C       16.6697970   14.2405115   21.7924997
| 24>     C       16.3516612   15.5945104   21.6207368
| 25>     O       15.4158474   16.1773148   22.4119379
| 26>     C       16.9918205   16.3511134   20.6342035
| 27>     H       15.4285906   13.5691712   16.6699359
| 28>     H       14.3304824   13.3418936   15.2976998
| 29>     H       14.0842322   14.7054948   16.4095468
| 30>     H       16.5395689   14.3687913   14.5582206
| 31>     H       15.1421422   15.4107061   14.2101528
| 32>     H       16.6753608   18.5727889   15.3793796
| 33>     H       16.1880413   19.8682208   16.4749429
| 34>     H       15.3232555   18.3288133   16.5044052
| 35>     H       17.4607343   20.1772710   18.1508298
| 36>     H       20.0159332   17.6839805   19.9983926
| 37>     H       19.4681703   15.9724903   18.2939890
| 38>     H       19.0097818   13.9287843   19.3282465
| 39>     H       17.8820859   12.5851994   21.0865326
| 40>     H       16.1702426   13.6545529   22.5566773
| 41>     H       15.1161392   15.5087753   23.0459340
| 42>     H       16.7325427   17.3980562   20.5217877
| 43> *
| 44>
| 45>                          ****END OF INPUT****

CARTESIAN COORDINATES (ANGSTROEM)
---------------------------------
  C     14.844492   14.096379   15.905287
  C     15.747361   14.976794   15.016309
  O     16.314668   16.038584   15.808061
  C     17.278908   15.771530   16.738446
  O     17.803925   14.674054   16.837672
  C     17.692404   16.941173   17.588980
  C     17.275112   18.225803   17.428084
  C     16.316443   18.782035   16.394770
  N     17.790329   19.230964   18.254149
  C     18.815074   19.065325   19.147697
  S     19.454332   20.338601   19.987827
  N     19.282041   17.786287   19.309333
  C     18.661261   16.584107   18.723045
  C     17.962939   15.762111   19.803638
  C     18.276547   14.401350   19.977359
  C     17.634733   13.638463   20.967292
  C     16.669797   14.240511   21.792500
  C     16.351661   15.594510   21.620737
  O     15.415847   16.177315   22.411938
  C     16.991820   16.351113   20.634204
  H     15.428591   13.569171   16.669936
  H     14.330482   13.341894   15.297700
  H     14.084232   14.705495   16.409547
  H     16.539569   14.368791   14.558221
  H     15.142142   15.410706   14.210153
  H     16.675361   18.572789   15.379380
  H     16.188041   19.868221   16.474943
  H     15.323256   18.328813   16.504405
  H     17.460734   20.177271   18.150830
  H     20.015933   17.683981   19.998393
  H     19.468170   15.972490   18.293989
  H     19.009782   13.928784   19.328246
  H     17.882086   12.585199   21.086533
  H     16.170243   13.654553   22.556677
  H     15.116139   15.508775   23.045934
  H     16.732543   17.398056   20.521788

 Total Charge           Charge          ....    0
 Multiplicity           Mult            ....    1
 Number of Electrons    NEL             ....  154
 Basis Dimension        Dim             ....  828

ORBITAL ENERGIES
----------------

  NO   OCC          E(Eh)            E(eV)
   0   2.0000     -91.888174     -2500.4043
   1   2.0000     -20.604309      -560.6718
   2   2.0000     -20.591069      -560.3115
   3   2.0000     -20.544493      -559.0441
   4   2.0000     -15.628771      -425.2805
   5   2.0000     -15.606619      -424.6777
   6   2.0000     -11.396883      -310.1250
   7   2.0000     -11.382851      -309.7431
   8   2.0000     -11.337604      -308.5119
   9   2.0000     -11.306862      -307.6754
  10   2.0000     -11.304921      -307.6226
  11   2.0000     -11.301505      -307.5296
  12   2.0000     -11.261099      -306.4301
  13   2.0000     -11.258719      -306.3653
  14   2.0000     -11.252828      -306.2050
  15   2.0000     -11.246991      -306.0462
  16   2.0000     -11.236655      -305.7649
  17   2.0000     -11.232857      -305.6616
  18   2.0000     -11.229698      -305.5756
  19   2.0000     -11.226101      -305.4777
  20   2.0000      -8.893231      -241.9971
  21   2.0000      -6.574807      -178.9096
  22   2.0000      -6.572802      -178.8550
  23   2.0000      -6.572215      -178.8391
  24   2.0000      -1.453629       -39.5553
  25   2.0000      -1.410808       -38.3900
  26   2.0000      -1.356870       -36.9223
  27   2.0000      -1.339615       -36.4528
  28   2.0000      -1.237039       -33.6615
  29   2.0000      -1.151595       -31.3365
  30   2.0000      -1.119155       -30.4537
  31   2.0000      -1.041717       -28.3466
  32   2.0000      -1.034146       -28.1405
  33   2.0000      -1.008921       -27.4541
  34   2.0000      -0.997175       -27.1345
  35   2.0000      -0.982637       -26.7389
  36   2.0000      -0.921107       -25.0646
  37   2.0000      -0.894808       -24.3490
  38   2.0000      -0.847785       -23.0694
  39   2.0000      -0.835032       -22.7224
  40   2.0000      -0.827238       -22.5103
  41   2.0000      -0.815755       -22.1978
  42   2.0000      -0.752900       -20.4875
  43   2.0000      -0.735453       -20.0127
  44   2.0000      -0.724349       -19.7105
  45   2.0000      -0.690429       -18.7875
  46   2.0000      -0.685590       -18.6559
  47   2.0000      -0.679138       -18.4803
  48   2.0000      -0.670888       -18.2558
  49   2.0000      -0.653125       -17.7724
  50   2.0000      -0.652073       -17.7438
  51   2.0000      -0.644156       -17.5284
  52   2.0000      -0.630490       -17.1565
  53   2.0000      -0.613196       -16.6859
  54   2.0000      -0.599935       -16.3251
  55   2.0000      -0.598961       -16.2986
  56   2.0000      -0.594473       -16.1764
  57   2.0000      -0.582499       -15.8506
  58   2.0000      -0.573221       -15.5981
  59   2.0000      -0.564576       -15.3629
  60   2.0000      -0.558581       -15.1998
  61   2.0000      -0.544597       -14.8192
  62   2.0000      -0.537798       -14.6342
  63   2.0000      -0.527015       -14.3408
  64   2.0000      -0.516243       -14.0477
  65   2.0000      -0.509126       -13.8540
  66   2.0000      -0.499222       -13.5845
  67   2.0000      -0.494983       -13.4692
  68   2.0000      -0.481163       -13.0931
  69   2.0000      -0.463581       -12.6147
  70   2.0000      -0.458214       -12.4686
  71   2.0000      -0.452152       -12.3037
  72   2.0000      -0.354411        -9.6440
  73   2.0000      -0.343557        -9.3486
  74   2.0000      -0.327239        -8.9046
  75   2.0000      -0.315591        -8.5877
  76   2.0000      -0.313094        -8.5197
  77   0.0000       0.075449         2.0531
  78   0.0000       0.114161         3.1065
  79   0.0000       0.121538         3.3072
  80   0.0000       0.136557         3.7159
  81   0.0000       0.141209         3.8425

MULLIKEN ATOMIC CHARGES
-----------------------
   0 C :   -0.297849
   1 C :    0.031679
   2 O :   -0.347017
   3 C :    0.458855
   4 O :   -0.439494
   5 C :   -0.178789
   6 C :    0.143798
   7 C :   -0.281702
   8 N :   -0.119724
   9 C :    0.201048
  10 S :   -0.438617
  11 N :   -0.196843
  12 C :    0.032874
  13 C :    0.060415
  14 C :   -0.162310
  15 C :   -0.134162
  16 C :   -0.278664
  17 C :    0.311775
  18 O :   -0.359247
  19 C :   -0.273863
  20 H :    0.123054
  21 H :    0.095355
  22 H :    0.093019
  23 H :    0.105123
  24 H :    0.107729
  25 H :    0.127705
  26 H :    0.100983
  27 H :    0.126382
  28 H :    0.196656
  29 H :    0.193515
  30 H :    0.153603
  31 H :    0.153561
  32 H :    0.158957
  33 H :    0.127837
  34 H :    0.240013
  35 H :    0.164346
Sum of atomic charges:    0.0000000

LOEWDIN ATOMIC CHARGES
----------------------
   0 C :    0.105801
   1 C :   -0.016714
   2 O :    0.304855
   3 C :   -0.413549
   4 O :    0.101507
   5 C :   -0.090705
   6 C :   -0.063220
   7 C :    0.125008
   8 N :    0.405114
   9 C :   -0.459272
  10 S :   -0.035504
  11 N :    0.398190
  12 C :   -0.046834
  13 C :   -0.038812
  14 C :    0.022187
  15 C :    0.040538
  16 C :   -0.002263
  17 C :   -0.192578
  18 O :    0.392939
  19 C :    0.028247
  20 H :   -0.023663
  21 H :   -0.026747
  22 H :   -0.029914
  23 H :   -0.027853
  24 H :   -0.025757
  25 H :   -0.008244
  26 H :   -0.021494
  27 H :   -0.009817
  28 H :   -0.059256
  29 H :   -0.063508
  30 H :   -0.005360
  31 H :   -0.025316
  32 H :   -0.021319
  33 H :   -0.036450
  34 H :   -0.154950
  35 H :   -0.025287

  Mayer bond orders larger than 0.100000
B(  0-C ,  1-C ) :   0.9629 B(  0-C , 20-H ) :   0.9731 B(  0-C , 21-H ) :   0.9761
B(  0-C , 22-H ) :   0.9768 B(  1-C ,  2-O ) :   0.8965 B(  1-C , 23-H ) :   0.9782
B(  1-C , 24-H ) :   0.9846 B(  2-O ,  3-C ) :   1.1614 B(  3-C ,  4-O ) :   1.9528
B(  3-C ,  5-C ) :   1.0740 B(  5-C ,  6-C ) :   1.6389 B(  5-C , 12-C ) :   0.9679
B(  6-C ,  7-C ) :   0.9572 B(  6-C ,  8-N ) :   1.1549 B(  7-C , 25-H ) :   0.9637
B(  7-C , 26-H ) :   0.9915 B(  7-C , 27-H ) :   0.9645 B(  8-N ,  9-C ) :   1.1760
B(  8-N , 28-H ) :   0.9485 B(  9-C , 10-S ) :   1.6114 B(  9-C , 11-N ) :   1.3055
B( 11-N , 12-C ) :   0.9925 B( 11-N , 29-H ) :   0.9519 B( 12-C , 13-C ) :   0.9461
B( 12-C , 30-H ) :   1.0012 B( 13-C , 14-C ) :   1.3746 B( 13-C , 19-C ) :   1.3690
B( 14-C , 15-C ) :   1.3945 B( 14-C , 31-H ) :   0.9649 B( 15-C , 16-C ) :   1.3621
B( 15-C , 32-H ) :   0.9715 B( 16-C , 17-C ) :   1.3318 B( 16-C , 33-H ) :   0.9861
B( 17-C , 18-O ) :   1.1079 B( 17-C , 19-C ) :   1.3793 B( 18-O , 34-H ) :   0.9806
B( 19-C , 35-H ) :   0.9584

MP2 TOTAL ENERGY:    -1274.349503703 Eh
FINAL SINGLE POINT ENERGY     -1274.349503703342

DIPOLE MOMENT
-------------
                                X             Y             Z
Electronic contribution:     10.85638       9.87287       9.80992
Nuclear contribution   :    -12.38793     -11.05629     -10.89293
                        -----------------------------------------
Total Dipole Moment    :     -1.53156      -1.18342      -1.08301
                        -----------------------------------------
Magnitude (a.u.)       :      2.21789
Magnitude (Debye)      :      5.63744

Rotational constants in cm-1:     0.010582     0.009089     0.005916
Rotational constants in MHz :   317.237419   272.481659   177.342978

                             ****ORCA TERMINATED NORMALLY****
TOTAL RUN TIME: 0 days 1 hours 41 minutes 50 seconds 161 msec
