                         Program Version 4.2.0 -  RELEASE  -
|  1> ! ri-mp2 cc-pvtz cc-pvtz/c TightSCF  NoKeepInts
|  2>
|  3> %scf
|  4>   MaxCore 4096
|  5> end
|  6> *xyz  0  1
|  7>     C       14.9243185   16.1129115   17.2825519
|  8>     C       15.6820448   14.7756854   17.1374865
|  9>     O       16.9018729   14.8543184   16.3582497
| 10>     C       17.9102117   15.7901587   16.3638485
| 11>     O       18.7424779   15.7921375   15.4768509
| 12>     C       17.8572605   16.9119747   17.3425677
| 13>     C       17.5009927   18.1535130   16.9419035
| 14>     C       17.0137760   18.5515761   15.5657113
| 15>     N       17.5864769   19.2278063   17.8292291
| 16>     C       18.0769210   19.1464675   19.1060074
| 17>     S       18.1331199   20.4633242   20.1044109
| 18>     N       18.5147535   17.9131270   19.5221446
| 19>     C       18.4761401   16.6706401   18.7246248
| 20>     C       17.8357348   15.5271671   19.5043301
| 21>     C       18.3641191   14.2266616   19.3989558
| 22>     C       17.7893248   13.1602240   20.1102006
| 23>     C       16.6786775   13.3947876   20.9383474
| 24>     C       16.1521897   14.6883970   21.0512428
| 25>     O       15.0752096   14.9173129   21.8432130
| 26>     C       16.7247516   15.7483848   20.3408508
| 27>     H       15.3631950   16.7588337   18.0492839
| 28>     H       13.8904421   15.9169068   17.5921635
| 29>     H       14.8864811   16.6499024   16.3277333
| 30>     H       15.8926415   14.3678293   18.1317234
| 31>     H       15.0178687   14.0550553   16.6431399
| 32>     H       16.6963151   17.6856023   14.9718368
| 33>     H       17.8171620   19.0458202   15.0048804
| 34>     H       16.1605501   19.2382569   15.6214574
| 35>     H       17.2935191   20.1454000   17.5323564
| 36>     H       18.8541832   17.8826673   20.4755166
| 37>     H       19.5224266   16.3832525   18.5446250
| 38>     H       19.2204147   14.0388830   18.7549834
| 39>     H       18.2049193   12.1578573   20.0174123
| 40>     H       16.2317807   12.5732520   21.4890518
| 41>     H       14.8591041   14.0858086   22.2923485
| 42>     H       16.2956231   16.7400969   20.4427599
| 43> *
| 44>
| 45>                          ****END OF INPUT****

CARTESIAN COORDINATES (ANGSTROEM)
---------------------------------
  C     14.924318   16.112911   17.282552
  C     15.682045   14.775685   17.137487
  O     16.901873   14.854318   16.358250
  C     17.910212   15.790159   16.363848
  O     18.742478   15.792138   15.476851
  C     17.857260   16.911975   17.342568
  C     17.500993   18.153513   16.941903
  C     17.013776   18.551576   15.565711
  N     17.586477   19.227806   17.829229
  C     18.076921   19.146467   19.106007
  S     18.133120   20.463324   20.104411
  N     18.514754   17.913127   19.522145
  C     18.476140   16.670640   18.724625
  C     17.835735   15.527167   19.504330
  C     18.364119   14.226662   19.398956
  C     17.789325   13.160224   20.110201
  C     16.678677   13.394788   20.938347
  C     16.152190   14.688397   21.051243
  O     15.075210   14.917313   21.843213
  C     16.724752   15.748385   20.340851
  H     15.363195   16.758834   18.049284
  H     13.890442   15.916907   17.592164
  H     14.886481   16.649902   16.327733
  H     15.892641   14.367829   18.131723
  H     15.017869   14.055055   16.643140
  H     16.696315   17.685602   14.971837
  H     17.817162   19.045820   15.004880
  H     16.160550   19.238257   15.621457
  H     17.293519   20.145400   17.532356
  H     18.854183   17.882667   20.475517
  H     19.522427   16.383253   18.544625
  H     19.220415   14.038883   18.754983
  H     18.204919   12.157857   20.017412
  H     16.231781   12.573252   21.489052
  H     14.859104   14.085809   22.292348
  H     16.295623   16.740097   20.442760

 Total Charge           Charge          ....    0
 Multiplicity           Mult            ....    1
 Number of Electrons    NEL             ....  154
 Basis Dimension        Dim             ....  828

ORBITAL ENERGIES
----------------

  NO   OCC          E(Eh)            E(eV)
   0   2.0000     -91.889435     -2500.4387
   1   2.0000     -20.606734      -560.7377
   2   2.0000     -20.596214      -560.4515
   3   2.0000     -20.549302      -559.1749
   4   2.0000     -15.624472      -425.1635
   5   2.0000     -15.612547      -424.8390
   6   2.0000     -11.397717      -310.1476
   7   2.0000     -11.386255      -309.8358
   8   2.0000     -11.325217      -308.1748
   9   2.0000     -11.323132      -308.1181
  10   2.0000     -11.320035      -308.0338
  11   2.0000     -11.303515      -307.5843
  12   2.0000     -11.272972      -306.7532
  13   2.0000     -11.266371      -306.5735
  14   2.0000     -11.259997      -306.4001
  15   2.0000     -11.258733      -306.3657
  16   2.0000     -11.254711      -306.2563
  17   2.0000     -11.249770      -306.1218
  18   2.0000     -11.249664      -306.1189
  19   2.0000     -11.233754      -305.6860
  20   2.0000      -8.894561      -242.0333
  21   2.0000      -6.576154      -178.9462
  22   2.0000      -6.574123      -178.8910
  23   2.0000      -6.573552      -178.8755
  24   2.0000      -1.441453       -39.2239
  25   2.0000      -1.426540       -38.8181
  26   2.0000      -1.355457       -36.8839
  27   2.0000      -1.338707       -36.4281
  28   2.0000      -1.240183       -33.7471
  29   2.0000      -1.168639       -31.8003
  30   2.0000      -1.124986       -30.6124
  31   2.0000      -1.052478       -28.6394
  32   2.0000      -1.037085       -28.2205
  33   2.0000      -1.026777       -27.9400
  34   2.0000      -1.004626       -27.3373
  35   2.0000      -0.989858       -26.9354
  36   2.0000      -0.929446       -25.2915
  37   2.0000      -0.898964       -24.4620
  38   2.0000      -0.852418       -23.1955
  39   2.0000      -0.846353       -23.0304
  40   2.0000      -0.842816       -22.9342
  41   2.0000      -0.831594       -22.6288
  42   2.0000      -0.750360       -20.4183
  43   2.0000      -0.739791       -20.1307
  44   2.0000      -0.724469       -19.7138
  45   2.0000      -0.705365       -19.1940
  46   2.0000      -0.692485       -18.8435
  47   2.0000      -0.678817       -18.4716
  48   2.0000      -0.676104       -18.3977
  49   2.0000      -0.661907       -18.0114
  50   2.0000      -0.656141       -17.8545
  51   2.0000      -0.649779       -17.6814
  52   2.0000      -0.638928       -17.3861
  53   2.0000      -0.618020       -16.8172
  54   2.0000      -0.614177       -16.7126
  55   2.0000      -0.609980       -16.5984
  56   2.0000      -0.606991       -16.5171
  57   2.0000      -0.585146       -15.9226
  58   2.0000      -0.578972       -15.7546
  59   2.0000      -0.573424       -15.6037
  60   2.0000      -0.568224       -15.4622
  61   2.0000      -0.555167       -15.1069
  62   2.0000      -0.539664       -14.6850
  63   2.0000      -0.535380       -14.5684
  64   2.0000      -0.527012       -14.3407
  65   2.0000      -0.516820       -14.0634
  66   2.0000      -0.506053       -13.7704
  67   2.0000      -0.502327       -13.6690
  68   2.0000      -0.491133       -13.3644
  69   2.0000      -0.465932       -12.6787
  70   2.0000      -0.451165       -12.2768
  71   2.0000      -0.447237       -12.1699
  72   2.0000      -0.360238        -9.8026
  73   2.0000      -0.351376        -9.5614
  74   2.0000      -0.333965        -9.0876
  75   2.0000      -0.329063        -8.9543
  76   2.0000      -0.317673        -8.6443
  77   0.0000       0.090641         2.4665
  78   0.0000       0.097676         2.6579
  79   0.0000       0.119299         3.2463
  80   0.0000       0.125852         3.4246
  81   0.0000       0.126802         3.4505

MULLIKEN ATOMIC CHARGES
-----------------------
   0 C :   -0.338580
   1 C :    0.036173
   2 O :   -0.320514
   3 C :    0.378712
   4 O :   -0.374722
   5 C :   -0.190239
   6 C :    0.146930
   7 C :   -0.311719
   8 N :   -0.137330
   9 C :    0.214536
  10 S :   -0.444347
  11 N :   -0.232350
  12 C :    0.093219
  13 C :   -0.012114
  14 C :   -0.194058
  15 C :   -0.132393
  16 C :   -0.273228
  17 C :    0.318552
  18 O :   -0.354991
  19 C :   -0.273629
  20 H :    0.112408
  21 H :    0.123686
  22 H :    0.107294
  23 H :    0.100416
  24 H :    0.127898
  25 H :    0.118743
  26 H :    0.147154
  27 H :    0.108396
  28 H :    0.196870
  29 H :    0.203958
  30 H :    0.164562
  31 H :    0.158796
  32 H :    0.165569
  33 H :    0.135417
  34 H :    0.242658
  35 H :    0.188271
Sum of atomic charges:   -0.0000000

LOEWDIN ATOMIC CHARGES
----------------------
   0 C :    0.102403
   1 C :   -0.013061
   2 O :    0.296661
   3 C :   -0.419678
   4 O :    0.126966
   5 C :   -0.081540
   6 C :   -0.095430
   7 C :    0.127266
   8 N :    0.403425
   9 C :   -0.455053
  10 S :   -0.039536
  11 N :    0.396623
  12 C :   -0.051472
  13 C :   -0.044229
  14 C :    0.018126
  15 C :    0.046112
  16 C :    0.000882
  17 C :   -0.193194
  18 O :    0.398037
  19 C :    0.029483
  20 H :   -0.035510
  21 H :   -0.021561
  22 H :   -0.029255
  23 H :   -0.032683
  24 H :   -0.020276
  25 H :   -0.009251
  26 H :   -0.006354
  27 H :   -0.018832
  28 H :   -0.057055
  29 H :   -0.065140
  30 H :   -0.007060
  31 H :   -0.024716
  32 H :   -0.017114
  33 H :   -0.032934
  34 H :   -0.151565
  35 H :   -0.023488

  Mayer bond orders larger than 0.100000
B(  0-C ,  1-C ) :   0.9550 B(  0-C , 20-H ) :   0.9702 B(  0-C , 21-H ) :   0.9774
B(  0-C , 22-H ) :   0.9759 B(  1-C ,  2-O ) :   0.9063 B(  1-C , 23-H ) :   0.9677
B(  1-C , 24-H ) :   0.9836 B(  2-O ,  3-C ) :   1.1987 B(  3-C ,  4-O ) :   2.1164
B(  3-C ,  5-C ) :   0.8902 B(  5-C ,  6-C ) :   1.7270 B(  5-C , 12-C ) :   0.9491
B(  6-C ,  7-C ) :   0.9525 B(  6-C ,  8-N ) :   1.1188 B(  7-C , 25-H ) :   0.9775
B(  7-C , 26-H ) :   0.9629 B(  7-C , 27-H ) :   0.9752 B(  8-N ,  9-C ) :   1.2082
B(  8-N , 28-H ) :   0.9516 B(  9-C , 10-S ) :   1.6044 B(  9-C , 11-N ) :   1.2824
B( 11-N , 12-C ) :   0.9911 B( 11-N , 29-H ) :   0.9447 B( 12-C , 13-C ) :   0.9371
B( 12-C , 30-H ) :   1.0009 B( 13-C , 14-C ) :   1.3800 B( 13-C , 19-C ) :   1.3441
B( 14-C , 15-C ) :   1.4024 B( 14-C , 31-H ) :   0.9697 B( 15-C , 16-C ) :   1.3595
B( 15-C , 32-H ) :   0.9694 B( 16-C , 17-C ) :   1.3297 B( 16-C , 33-H ) :   0.9837
B( 17-C , 18-O ) :   1.1137 B( 17-C , 19-C ) :   1.3616 B( 18-O , 34-H ) :   0.9780
B( 19-C , 35-H ) :   0.9505

MP2 TOTAL ENERGY:    -1274.325813526 Eh
FINAL SINGLE POINT ENERGY     -1274.325813526280

DIPOLE MOMENT
-------------
                                X             Y             Z
Electronic contribution:      8.83270       5.32356       5.82495
Nuclear contribution   :    -10.15682      -6.96155      -5.61246
                        -----------------------------------------
Total Dipole Moment    :     -1.32411      -1.63799       0.21249
                        -----------------------------------------
Magnitude (a.u.)       :      2.11694
Magnitude (Debye)      :      5.38083

Rotational constants in cm-1:     0.012671     0.009173     0.006650
Rotational constants in MHz :   379.872127   275.012182   199.350170

                             ****ORCA TERMINATED NORMALLY****
TOTAL RUN TIME: 0 days 1 hours 47 minutes 39 seconds 604 msec
