                         Program Version 4.2.0 -  RELEASE  -
|  1> ! ri-mp2 cc-pvtz cc-pvtz/c TightSCF  NoKeepInts
|  2>
|  3> %scf
|  4>   MaxCore 4096
|  5> end
|  6> *xyz  0  1
|  7>     C       15.1506810   15.2822784   17.0220394
|  8>     C       16.2367085   14.2237832   16.7169632
|  9>     O       17.5641698   14.7629417   16.4860829
| 10>     C       17.7675472   16.0574883   16.1066795
| 11>     O       17.4495149   16.4024275   14.9827982
| 12>     C       17.8373593   17.0064605   17.2737464
| 13>     C       17.4306552   18.2990237   17.1925050
| 14>     C       16.7229965   18.9700197   16.0349686
| 15>     N       17.7067449   19.1835499   18.2396539
| 16>     C       18.5762416   18.9213083   19.2655284
| 17>     S       19.0080721   20.0778171   20.3658613
| 18>     N       19.0753810   17.6444562   19.3298626
| 19>     C       18.5741455   16.5088838   18.5323443
| 20>     C       17.7507553   15.5860202   19.4286233
| 21>     C       18.0902095   14.2246126   19.5467250
| 22>     C       17.3495294   13.3704679   20.3808343
| 23>     C       16.2648078   13.8824083   21.1124795
| 24>     C       15.9335444   15.2402885   21.0122491
| 25>     O       14.8877997   15.7386043   21.7181748
| 26>     C       16.6735641   16.0880025   20.1823233
| 27>     H       15.3948146   15.8856830   17.8992247
| 28>     H       14.1933403   14.7859703   17.2215636
| 29>     H       15.0004957   15.9510608   16.1654981
| 30>     H       16.2791398   13.4976274   17.5385876
| 31>     H       15.9270033   13.6754908   15.8176798
| 32>     H       17.3988045   19.0650118   15.1752555
| 33>     H       16.3531117   19.9717304   16.2829213
| 34>     H       15.8617461   18.3743571   15.7080686
| 35>     H       17.3618547   20.1292739   18.1957121
| 36>     H       19.6945760   17.4726585   20.1117800
| 37>     H       19.4514563   15.9426225   18.1891840
| 38>     H       18.9263840   13.8234773   18.9795950
| 39>     H       17.6180539   12.3182146   20.4593448
| 40>     H       15.6893627   13.2267547   21.7578937
| 41>     H       14.5433998   15.0241889   22.2750624
| 42>     H       16.4030290   17.1370353   20.1261857
| 43> *
| 44>
| 45>                          ****END OF INPUT****

CARTESIAN COORDINATES (ANGSTROEM)
---------------------------------
  C     15.150681   15.282278   17.022039
  C     16.236708   14.223783   16.716963
  O     17.564170   14.762942   16.486083
  C     17.767547   16.057488   16.106679
  O     17.449515   16.402428   14.982798
  C     17.837359   17.006460   17.273746
  C     17.430655   18.299024   17.192505
  C     16.722997   18.970020   16.034969
  N     17.706745   19.183550   18.239654
  C     18.576242   18.921308   19.265528
  S     19.008072   20.077817   20.365861
  N     19.075381   17.644456   19.329863
  C     18.574146   16.508884   18.532344
  C     17.750755   15.586020   19.428623
  C     18.090209   14.224613   19.546725
  C     17.349529   13.370468   20.380834
  C     16.264808   13.882408   21.112479
  C     15.933544   15.240288   21.012249
  O     14.887800   15.738604   21.718175
  C     16.673564   16.088003   20.182323
  H     15.394815   15.885683   17.899225
  H     14.193340   14.785970   17.221564
  H     15.000496   15.951061   16.165498
  H     16.279140   13.497627   17.538588
  H     15.927003   13.675491   15.817680
  H     17.398804   19.065012   15.175256
  H     16.353112   19.971730   16.282921
  H     15.861746   18.374357   15.708069
  H     17.361855   20.129274   18.195712
  H     19.694576   17.472658   20.111780
  H     19.451456   15.942623   18.189184
  H     18.926384   13.823477   18.979595
  H     17.618054   12.318215   20.459345
  H     15.689363   13.226755   21.757894
  H     14.543400   15.024189   22.275062
  H     16.403029   17.137035   20.126186

 Total Charge           Charge          ....    0
 Multiplicity           Mult            ....    1
 Number of Electrons    NEL             ....  154
 Basis Dimension        Dim             ....  828

ORBITAL ENERGIES
----------------

  NO   OCC          E(Eh)            E(eV)
   0   2.0000     -91.891323     -2500.4900
   1   2.0000     -20.600151      -560.5586
   2   2.0000     -20.576789      -559.9229
   3   2.0000     -20.552545      -559.2632
   4   2.0000     -15.630705      -425.3331
   5   2.0000     -15.610166      -424.7742
   6   2.0000     -11.394311      -310.0550
   7   2.0000     -11.385857      -309.8249
   8   2.0000     -11.335937      -308.4665
   9   2.0000     -11.317599      -307.9675
  10   2.0000     -11.313845      -307.8654
  11   2.0000     -11.300763      -307.5094
  12   2.0000     -11.263559      -306.4970
  13   2.0000     -11.260241      -306.4067
  14   2.0000     -11.258626      -306.3628
  15   2.0000     -11.254373      -306.2471
  16   2.0000     -11.247287      -306.0542
  17   2.0000     -11.242443      -305.9224
  18   2.0000     -11.241401      -305.8941
  19   2.0000     -11.226980      -305.5017
  20   2.0000      -8.896350      -242.0820
  21   2.0000      -6.577916      -178.9942
  22   2.0000      -6.575921      -178.9399
  23   2.0000      -6.575324      -178.9237
  24   2.0000      -1.445235       -39.3268
  25   2.0000      -1.419926       -38.6382
  26   2.0000      -1.350177       -36.7402
  27   2.0000      -1.342133       -36.5213
  28   2.0000      -1.240665       -33.7602
  29   2.0000      -1.160568       -31.5807
  30   2.0000      -1.121100       -30.5067
  31   2.0000      -1.045510       -28.4498
  32   2.0000      -1.031525       -28.0692
  33   2.0000      -1.019259       -27.7354
  34   2.0000      -1.000350       -27.2209
  35   2.0000      -0.987253       -26.8645
  36   2.0000      -0.925530       -25.1850
  37   2.0000      -0.897020       -24.4092
  38   2.0000      -0.848944       -23.1009
  39   2.0000      -0.843099       -22.9419
  40   2.0000      -0.838144       -22.8070
  41   2.0000      -0.819464       -22.2988
  42   2.0000      -0.746024       -20.3003
  43   2.0000      -0.734932       -19.9985
  44   2.0000      -0.722317       -19.6553
  45   2.0000      -0.699105       -19.0236
  46   2.0000      -0.691013       -18.8034
  47   2.0000      -0.673159       -18.3176
  48   2.0000      -0.671423       -18.2704
  49   2.0000      -0.661846       -18.0097
  50   2.0000      -0.653251       -17.7759
  51   2.0000      -0.645772       -17.5723
  52   2.0000      -0.638387       -17.3714
  53   2.0000      -0.625546       -17.0220
  54   2.0000      -0.610209       -16.6046
  55   2.0000      -0.602843       -16.4042
  56   2.0000      -0.601298       -16.3621
  57   2.0000      -0.580360       -15.7924
  58   2.0000      -0.573309       -15.6005
  59   2.0000      -0.565427       -15.3861
  60   2.0000      -0.549129       -14.9426
  61   2.0000      -0.544703       -14.8221
  62   2.0000      -0.539898       -14.6914
  63   2.0000      -0.530967       -14.4484
  64   2.0000      -0.527406       -14.3514
  65   2.0000      -0.515970       -14.0402
  66   2.0000      -0.504215       -13.7204
  67   2.0000      -0.495891       -13.4939
  68   2.0000      -0.480409       -13.0726
  69   2.0000      -0.466421       -12.6920
  70   2.0000      -0.453144       -12.3307
  71   2.0000      -0.444406       -12.0929
  72   2.0000      -0.357643        -9.7320
  73   2.0000      -0.350572        -9.5396
  74   2.0000      -0.330518        -8.9938
  75   2.0000      -0.325507        -8.8575
  76   2.0000      -0.318531        -8.6677
  77   0.0000       0.067266         1.8304
  78   0.0000       0.102052         2.7770
  79   0.0000       0.119331         3.2472
  80   0.0000       0.128279         3.4906
  81   0.0000       0.132610         3.6085

MULLIKEN ATOMIC CHARGES
-----------------------
   0 C :   -0.346335
   1 C :    0.042134
   2 O :   -0.393592
   3 C :    0.486689
   4 O :   -0.396244
   5 C :   -0.254278
   6 C :    0.159603
   7 C :   -0.275226
   8 N :   -0.121911
   9 C :    0.192906
  10 S :   -0.432725
  11 N :   -0.194200
  12 C :    0.050324
  13 C :    0.068818
  14 C :   -0.203692
  15 C :   -0.134684
  16 C :   -0.276192
  17 C :    0.319244
  18 O :   -0.356578
  19 C :   -0.284564
  20 H :    0.114127
  21 H :    0.118083
  22 H :    0.112617
  23 H :    0.115468
  24 H :    0.121073
  25 H :    0.139148
  26 H :    0.095090
  27 H :    0.125859
  28 H :    0.197972
  29 H :    0.191603
  30 H :    0.149095
  31 H :    0.154343
  32 H :    0.166420
  33 H :    0.133450
  34 H :    0.241001
  35 H :    0.175153
Sum of atomic charges:   -0.0000000

LOEWDIN ATOMIC CHARGES
----------------------
   0 C :    0.106564
   1 C :   -0.006676
   2 O :    0.274975
   3 C :   -0.423770
   4 O :    0.128928
   5 C :   -0.096251
   6 C :   -0.062918
   7 C :    0.130286
   8 N :    0.406587
   9 C :   -0.459380
  10 S :   -0.031704
  11 N :    0.396381
  12 C :   -0.051824
  13 C :   -0.039442
  14 C :    0.018983
  15 C :    0.039090
  16 C :   -0.002270
  17 C :   -0.191560
  18 O :    0.396348
  19 C :    0.032627
  20 H :   -0.036456
  21 H :   -0.021486
  22 H :   -0.029439
  23 H :   -0.026219
  24 H :   -0.027464
  25 H :   -0.003094
  26 H :   -0.022777
  27 H :   -0.008799
  28 H :   -0.057877
  29 H :   -0.064748
  30 H :   -0.006617
  31 H :   -0.027775
  32 H :   -0.020418
  33 H :   -0.034711
  34 H :   -0.153166
  35 H :   -0.023927

  Mayer bond orders larger than 0.100000
B(  0-C ,  1-C ) :   0.9594 B(  0-C , 20-H ) :   0.9682 B(  0-C , 21-H ) :   0.9768
B(  0-C , 22-H ) :   0.9729 B(  1-C ,  2-O ) :   0.8778 B(  1-C , 23-H ) :   0.9739
B(  1-C , 24-H ) :   0.9863 B(  2-O ,  3-C ) :   1.1052 B(  3-C ,  4-O ) :   2.0367
B(  3-C ,  5-C ) :   1.0253 B(  5-C ,  6-C ) :   1.6624 B(  5-C , 12-C ) :   0.9642
B(  6-C ,  7-C ) :   0.9659 B(  6-C ,  8-N ) :   1.1410 B(  7-C , 25-H ) :   0.9568
B(  7-C , 26-H ) :   0.9876 B(  7-C , 27-H ) :   0.9675 B(  8-N ,  9-C ) :   1.1802
B(  8-N , 28-H ) :   0.9488 B(  9-C , 10-S ) :   1.6208 B(  9-C , 11-N ) :   1.2949
B( 11-N , 12-C ) :   0.9911 B( 11-N , 29-H ) :   0.9531 B( 12-C , 13-C ) :   0.9409
B( 12-C , 30-H ) :   1.0059 B( 13-C , 14-C ) :   1.3530 B( 13-C , 19-C ) :   1.3575
B( 14-C , 15-C ) :   1.3896 B( 14-C , 31-H ) :   0.9713 B( 15-C , 16-C ) :   1.3604
B( 15-C , 32-H ) :   0.9697 B( 16-C , 17-C ) :   1.3299 B( 16-C , 33-H ) :   0.9838
B( 17-C , 18-O ) :   1.1138 B( 17-C , 19-C ) :   1.3720 B( 18-O , 34-H ) :   0.9796
B( 19-C , 35-H ) :   0.9579

MP2 TOTAL ENERGY:    -1274.318202574 Eh
FINAL SINGLE POINT ENERGY     -1274.318202573593

DIPOLE MOMENT
-------------
                                X             Y             Z
Electronic contribution:     10.01295       7.38021       5.88860
Nuclear contribution   :    -11.16040      -8.94987      -5.79886
                        -----------------------------------------
Total Dipole Moment    :     -1.14745      -1.56967       0.08974
                        -----------------------------------------
Magnitude (a.u.)       :      1.94642
Magnitude (Debye)      :      4.94741

Rotational constants in cm-1:     0.011888     0.009929     0.006669
Rotational constants in MHz :   356.386245   297.663426   199.925188

                             ****ORCA TERMINATED NORMALLY****
TOTAL RUN TIME: 0 days 2 hours 40 minutes 29 seconds 298 msec
