                         Program Version 5.0.0 -  RELEASE  -
|  1> ! ri-mp2 cc-pvtz cc-pvtz/c TightSCF NoKeepInts
|  2>
|  3> %scf
|  4>   MaxCore 4096
|  5> end
|  6> *xyz  0  1
|  7>     C       14.9461342   14.6090935   16.0483847
|  8>     C       16.1678550   14.3758728   16.9598078
|  9>     O       17.3498887   14.9635570   16.3708507
| 10>     C       17.4007339   16.3088337   16.1411372
| 11>     O       16.9870749   16.7656324   15.0908925
| 12>     C       17.7016207   17.1401260   17.3597462
| 13>     C       17.3546680   18.4501987   17.4423019
| 14>     C       16.5116588   19.2406203   16.4649256
| 15>     N       17.8337918   19.2343670   18.4965043
| 16>     C       18.8396027   18.8550408   19.3462546
| 17>     S       19.5055620   19.9014917   20.4400632
| 18>     N       19.2753280   17.5586283   19.2321684
| 19>     C       18.5854572   16.5131730   18.4539371
| 20>     C       17.8297547   15.6049263   19.4168919
| 21>     C       18.2199358   14.2619385   19.5790510
| 22>     C       17.5256810   13.4174110   20.4614961
| 23>     C       16.4367822   13.9205991   21.1935256
| 24>     C       16.0524071   15.2599423   21.0436421
| 25>     O       15.0012242   15.7488997   21.7478964
| 26>     C       16.7429973   16.0975601   20.1623914
| 27>     H       14.6667563   15.6696128   16.0207605
| 28>     H       14.0814936   14.0428795   16.4149605
| 29>     H       15.1606252   14.2814766   15.0231561
| 30>     H       15.9502574   14.8028771   17.9432571
| 31>     H       16.3266419   13.2972698   17.0863343
| 32>     H       15.5926211   18.6957078   16.2148774
| 33>     H       17.0603124   19.4018475   15.5278861
| 34>     H       16.2147517   20.2218607   16.8532810
| 35>     H       17.5386212   20.1945196   18.5765724
| 36>     H       20.0038410   17.3002238   19.8853503
| 37>     H       19.3556786   15.9122963   17.9497151
| 38>     H       19.0605099   13.8684428   19.0129769
| 39>     H       17.8338328   12.3795342   20.5783257
| 40>     H       15.8986980   13.2722432   21.8775797
| 41>     H       14.7012320   15.0507652   22.3496353
| 42>     H       16.4329690   17.1325310   20.0674629
| 43> *
| 44>
| 45>                          ****END OF INPUT****

CARTESIAN COORDINATES (ANGSTROEM)
---------------------------------
  C     14.946134   14.609093   16.048385
  C     16.167855   14.375873   16.959808
  O     17.349889   14.963557   16.370851
  C     17.400734   16.308834   16.141137
  O     16.987075   16.765632   15.090892
  C     17.701621   17.140126   17.359746
  C     17.354668   18.450199   17.442302
  C     16.511659   19.240620   16.464926
  N     17.833792   19.234367   18.496504
  C     18.839603   18.855041   19.346255
  S     19.505562   19.901492   20.440063
  N     19.275328   17.558628   19.232168
  C     18.585457   16.513173   18.453937
  C     17.829755   15.604926   19.416892
  C     18.219936   14.261938   19.579051
  C     17.525681   13.417411   20.461496
  C     16.436782   13.920599   21.193526
  C     16.052407   15.259942   21.043642
  O     15.001224   15.748900   21.747896
  C     16.742997   16.097560   20.162391
  H     14.666756   15.669613   16.020761
  H     14.081494   14.042879   16.414960
  H     15.160625   14.281477   15.023156
  H     15.950257   14.802877   17.943257
  H     16.326642   13.297270   17.086334
  H     15.592621   18.695708   16.214877
  H     17.060312   19.401847   15.527886
  H     16.214752   20.221861   16.853281
  H     17.538621   20.194520   18.576572
  H     20.003841   17.300224   19.885350
  H     19.355679   15.912296   17.949715
  H     19.060510   13.868443   19.012977
  H     17.833833   12.379534   20.578326
  H     15.898698   13.272243   21.877580
  H     14.701232   15.050765   22.349635
  H     16.432969   17.132531   20.067463

 Total Charge           Charge          ....    0
 Multiplicity           Mult            ....    1
 Number of Electrons    NEL             ....  154
 Basis Dimension        Dim             ....  828

ORBITAL ENERGIES
----------------

  NO   OCC          E(Eh)            E(eV)
   0   2.0000     -91.891709     -2500.5005
   1   2.0000     -20.602324      -560.6177
   2   2.0000     -20.581336      -560.0466
   3   2.0000     -20.549683      -559.1853
   4   2.0000     -15.631808      -425.3631
   5   2.0000     -15.610577      -424.7854
   6   2.0000     -11.393320      -310.0280
   7   2.0000     -11.386258      -309.8358
   8   2.0000     -11.337681      -308.5140
   9   2.0000     -11.320388      -308.0434
  10   2.0000     -11.313916      -307.8673
  11   2.0000     -11.296681      -307.3983
  12   2.0000     -11.264805      -306.5309
  13   2.0000     -11.261465      -306.4400
  14   2.0000     -11.259803      -306.3948
  15   2.0000     -11.254772      -306.2579
  16   2.0000     -11.249449      -306.1131
  17   2.0000     -11.243840      -305.9604
  18   2.0000     -11.243502      -305.9512
  19   2.0000     -11.221241      -305.3455
  20   2.0000      -8.896721      -242.0921
  21   2.0000      -6.578283      -179.0042
  22   2.0000      -6.576292      -178.9500
  23   2.0000      -6.575693      -178.9337
  24   2.0000      -1.444901       -39.3178
  25   2.0000      -1.422033       -38.6955
  26   2.0000      -1.352857       -36.8131
  27   2.0000      -1.343074       -36.5469
  28   2.0000      -1.241490       -33.7827
  29   2.0000      -1.162898       -31.6441
  30   2.0000      -1.122090       -30.5336
  31   2.0000      -1.047230       -28.4966
  32   2.0000      -1.030159       -28.0321
  33   2.0000      -1.021292       -27.7908
  34   2.0000      -0.999593       -27.2003
  35   2.0000      -0.987031       -26.8585
  36   2.0000      -0.926538       -25.2124
  37   2.0000      -0.886913       -24.1341
  38   2.0000      -0.850431       -23.1414
  39   2.0000      -0.844845       -22.9894
  40   2.0000      -0.839755       -22.8509
  41   2.0000      -0.828455       -22.5434
  42   2.0000      -0.751470       -20.4485
  43   2.0000      -0.735860       -20.0238
  44   2.0000      -0.716898       -19.5078
  45   2.0000      -0.701279       -19.0828
  46   2.0000      -0.691994       -18.8301
  47   2.0000      -0.680065       -18.5055
  48   2.0000      -0.667631       -18.1672
  49   2.0000      -0.667069       -18.1519
  50   2.0000      -0.652143       -17.7457
  51   2.0000      -0.649287       -17.6680
  52   2.0000      -0.638748       -17.3812
  53   2.0000      -0.612464       -16.6660
  54   2.0000      -0.610539       -16.6136
  55   2.0000      -0.602584       -16.3971
  56   2.0000      -0.601975       -16.3806
  57   2.0000      -0.582223       -15.8431
  58   2.0000      -0.574197       -15.6247
  59   2.0000      -0.568275       -15.4636
  60   2.0000      -0.556400       -15.1404
  61   2.0000      -0.544118       -14.8062
  62   2.0000      -0.537267       -14.6198
  63   2.0000      -0.529862       -14.4183
  64   2.0000      -0.523586       -14.2475
  65   2.0000      -0.517842       -14.0912
  66   2.0000      -0.505921       -13.7668
  67   2.0000      -0.497156       -13.5283
  68   2.0000      -0.477880       -13.0038
  69   2.0000      -0.466179       -12.6854
  70   2.0000      -0.454808       -12.3760
  71   2.0000      -0.443776       -12.0758
  72   2.0000      -0.359082        -9.7711
  73   2.0000      -0.354352        -9.6424
  74   2.0000      -0.331552        -9.0220
  75   2.0000      -0.327794        -8.9197
  76   2.0000      -0.318628        -8.6703
  77   0.0000       0.068828         1.8729
  78   0.0000       0.100363         2.7310
  79   0.0000       0.121117         3.2958
  80   0.0000       0.127445         3.4680
  81   0.0000       0.131886         3.5888

MULLIKEN ATOMIC CHARGES
-----------------------
   0 C :   -0.273365
   1 C :    0.028039
   2 O :   -0.378595
   3 C :    0.467934
   4 O :   -0.389626
   5 C :   -0.251900
   6 C :    0.151200
   7 C :   -0.271266
   8 N :   -0.126146
   9 C :    0.205942
  10 S :   -0.433279
  11 N :   -0.192276
  12 C :    0.038796
  13 C :    0.030874
  14 C :   -0.161998
  15 C :   -0.134874
  16 C :   -0.273538
  17 C :    0.305004
  18 O :   -0.355801
  19 C :   -0.256222
  20 H :    0.090982
  21 H :    0.096661
  22 H :    0.110265
  23 H :    0.105218
  24 H :    0.110083
  25 H :    0.124903
  26 H :    0.138721
  27 H :    0.094763
  28 H :    0.198598
  29 H :    0.191429
  30 H :    0.149986
  31 H :    0.150524
  32 H :    0.164122
  33 H :    0.134063
  34 H :    0.241749
  35 H :    0.169031
Sum of atomic charges:    0.0000000

LOEWDIN ATOMIC CHARGES
----------------------
   0 C :    0.105783
   1 C :   -0.018612
   2 O :    0.280771
   3 C :   -0.421130
   4 O :    0.127688
   5 C :   -0.099234
   6 C :   -0.060694
   7 C :    0.130484
   8 N :    0.406566
   9 C :   -0.457525
  10 S :   -0.030814
  11 N :    0.396516
  12 C :   -0.052361
  13 C :   -0.041083
  14 C :    0.016166
  15 C :    0.042634
  16 C :   -0.000645
  17 C :   -0.191268
  18 O :    0.396793
  19 C :    0.029721
  20 H :   -0.031008
  21 H :   -0.028034
  22 H :   -0.022348
  23 H :   -0.036019
  24 H :   -0.022219
  25 H :   -0.007122
  26 H :   -0.002584
  27 H :   -0.022810
  28 H :   -0.057384
  29 H :   -0.065087
  30 H :   -0.005965
  31 H :   -0.028577
  32 H :   -0.019556
  33 H :   -0.034141
  34 H :   -0.152506
  35 H :   -0.024395

  Mayer bond orders larger than 0.100000
B(  0-C ,  1-C ) :   0.9816 B(  0-C , 20-H ) :   0.9732 B(  0-C , 21-H ) :   0.9758
B(  0-C , 22-H ) :   0.9771 B(  1-C ,  2-O ) :   0.8836 B(  1-C , 23-H ) :   0.9633
B(  1-C , 24-H ) :   0.9802 B(  2-O ,  3-C ) :   1.1088 B(  3-C ,  4-O ) :   2.0495
B(  3-C ,  5-C ) :   1.0238 B(  5-C ,  6-C ) :   1.6644 B(  5-C , 12-C ) :   0.9663
B(  6-C ,  7-C ) :   0.9695 B(  6-C ,  8-N ) :   1.1483 B(  7-C , 25-H ) :   0.9674
B(  7-C , 26-H ) :   0.9553 B(  7-C , 27-H ) :   0.9871 B(  8-N ,  9-C ) :   1.1777
B(  8-N , 28-H ) :   0.9487 B(  9-C , 10-S ) :   1.6188 B(  9-C , 11-N ) :   1.2981
B( 11-N , 12-C ) :   0.9820 B( 11-N , 29-H ) :   0.9542 B( 12-C , 13-C ) :   0.9483
B( 12-C , 30-H ) :   1.0032 B( 13-C , 14-C ) :   1.3621 B( 13-C , 19-C ) :   1.3684
B( 14-C , 15-C ) :   1.3847 B( 14-C , 31-H ) :   0.9730 B( 15-C , 16-C ) :   1.3684
B( 15-C , 32-H ) :   0.9697 B( 16-C , 17-C ) :   1.3268 B( 16-C , 33-H ) :   0.9834
B( 17-C , 18-O ) :   1.1154 B( 17-C , 19-C ) :   1.3777 B( 18-O , 34-H ) :   0.9789
B( 19-C , 35-H ) :   0.9569

MP2 TOTAL ENERGY:    -1274.328676672 Eh
FINAL SINGLE POINT ENERGY     -1274.328676672206

DIPOLE MOMENT
-------------
                                X             Y             Z
Electronic contribution:     10.78189       8.44440       7.01784
Nuclear contribution   :    -11.93987     -10.00753      -6.68157
                        -----------------------------------------
Total Dipole Moment    :     -1.15798      -1.56313       0.33626
                        -----------------------------------------
Magnitude (a.u.)       :      1.97418
Magnitude (Debye)      :      5.01796

Rotational constants in cm-1:     0.011477     0.009636     0.006459
Rotational constants in MHz :   344.058137   288.882689   193.644668

                             ****ORCA TERMINATED NORMALLY****
TOTAL RUN TIME: 0 days 2 hours 17 minutes 14 seconds 596 msec
