                         Program Version 5.0.0 -  RELEASE  -
|  1> ! RI-MP2 cc-pVTZ cc-pVTZ/c TightSCF KeepDens NoKeepInts
|  2>
|  3> %pointcharges "srfp_output"
|  4>
|  5> *xyz  0  1
|  6>     C    -6.4897493   -9.5862583  -11.6148836
|  7>     C    -4.9569036   -9.4571827  -11.5091032
|  8>     O    -4.3913682   -9.0627130  -10.2240492
|  9>     C    -4.3092744  -10.0110060   -9.2829528
| 10>     O    -4.5393824  -11.1837937   -9.4877639
| 11>     C    -4.4267120   -9.4569987   -7.9226766
| 12>     C    -4.1191053   -8.2313967   -7.6131348
| 13>     C    -3.4872236   -7.0734226   -8.3791291
| 14>     N    -4.1683212   -7.8213780   -6.3020165
| 15>     C    -4.5518188   -8.6321208   -5.3014285
| 16>     S    -4.4230716   -8.0986726   -3.7382885
| 17>     N    -4.9048097   -9.9356568   -5.6318890
| 18>     C    -5.0238257  -10.4406767   -6.9872263
| 19>     C    -6.5319592  -10.6600038   -7.2256431
| 20>     C    -7.1470723  -11.8507900   -6.7014957
| 21>     C    -8.5770102  -12.0298756   -6.9152883
| 22>     C    -9.3039046  -11.0684972   -7.6843896
| 23>     C    -8.6896192   -9.8928014   -8.1640109
| 24>     O    -9.4347153   -8.9378871   -8.7878135
| 25>     C    -7.3778005   -9.6347251   -7.8144100
| 26>     H    -6.9193664   -9.8806564  -10.6495119
| 27>     H    -6.9088443  -10.2371299  -12.3920041
| 28>     H    -6.9639789   -8.6206013  -11.8288983
| 29>     H    -4.5546801  -10.4457509  -11.7623597
| 30>     H    -4.6717257   -8.7162552  -12.2660046
| 31>     H    -4.0322536   -6.8484226   -9.3040666
| 32>     H    -2.4950604   -7.4722609   -8.6235260
| 33>     H    -3.3307921   -6.1435170   -7.8187722
| 34>     H    -4.0529091   -6.8401209   -6.0789003
| 35>     H    -5.0834292  -10.6423157   -4.9285436
| 36>     H    -4.4610143  -11.3779689   -7.0761996
| 37>     H    -6.5396791  -12.6252348   -6.2424696
| 38>     H    -9.0127975  -12.9689539   -6.5872375
| 39>     H   -10.3167919  -11.2144696   -8.0479106
| 40>     H    -8.8656184   -8.1560394   -8.8953867
| 41>     H    -6.9165410   -8.7137029   -8.1584356
| 42> *
| 43>
| 44>                          ****END OF INPUT****

CARTESIAN COORDINATES (ANGSTROEM)
---------------------------------
  C     -6.489749   -9.586258  -11.614884
  C     -4.956904   -9.457183  -11.509103
  O     -4.391368   -9.062713  -10.224049
  C     -4.309274  -10.011006   -9.282953
  O     -4.539382  -11.183794   -9.487764
  C     -4.426712   -9.456999   -7.922677
  C     -4.119105   -8.231397   -7.613135
  C     -3.487224   -7.073423   -8.379129
  N     -4.168321   -7.821378   -6.302016
  C     -4.551819   -8.632121   -5.301429
  S     -4.423072   -8.098673   -3.738288
  N     -4.904810   -9.935657   -5.631889
  C     -5.023826  -10.440677   -6.987226
  C     -6.531959  -10.660004   -7.225643
  C     -7.147072  -11.850790   -6.701496
  C     -8.577010  -12.029876   -6.915288
  C     -9.303905  -11.068497   -7.684390
  C     -8.689619   -9.892801   -8.164011
  O     -9.434715   -8.937887   -8.787813
  C     -7.377801   -9.634725   -7.814410
  H     -6.919366   -9.880656  -10.649512
  H     -6.908844  -10.237130  -12.392004
  H     -6.963979   -8.620601  -11.828898
  H     -4.554680  -10.445751  -11.762360
  H     -4.671726   -8.716255  -12.266005
  H     -4.032254   -6.848423   -9.304067
  H     -2.495060   -7.472261   -8.623526
  H     -3.330792   -6.143517   -7.818772
  H     -4.052909   -6.840121   -6.078900
  H     -5.083429  -10.642316   -4.928544
  H     -4.461014  -11.377969   -7.076200
  H     -6.539679  -12.625235   -6.242470
  H     -9.012797  -12.968954   -6.587237
  H    -10.316792  -11.214470   -8.047911
  H     -8.865618   -8.156039   -8.895387
  H     -6.916541   -8.713703   -8.158436

 Total Charge           Charge          ....    0
 Multiplicity           Mult            ....    1
 Number of Electrons    NEL             ....  154
 Basis Dimension        Dim             ....  828

ORBITAL ENERGIES
----------------

  NO   OCC          E(Eh)            E(eV)
   0   2.0000     -89.510333     -2435.7000
   1   2.0000     -18.192648      -495.0471
   2   2.0000     -18.177180      -494.6262
   3   2.0000     -18.149415      -493.8707
   4   2.0000     -13.212622      -359.5337
   5   2.0000     -13.200026      -359.1910
   6   2.0000      -8.992242      -244.6914
   7   2.0000      -8.988404      -244.5869
   8   2.0000      -8.903592      -242.2791
   9   2.0000      -8.894800      -242.0398
  10   2.0000      -8.886463      -241.8130
  11   2.0000      -8.873362      -241.4565
  12   2.0000      -8.854304      -240.9379
  13   2.0000      -8.845651      -240.7024
  14   2.0000      -8.830941      -240.3021
  15   2.0000      -8.827283      -240.2026
  16   2.0000      -8.826464      -240.1803
  17   2.0000      -8.823456      -240.0985
  18   2.0000      -8.821225      -240.0377
  19   2.0000      -8.798039      -239.4068
  20   2.0000      -6.517288      -177.3444
  21   2.0000      -4.199357      -114.2703
  22   2.0000      -4.197323      -114.2150
  23   2.0000      -4.196948      -114.2048
  24   2.0000       0.941506        25.6197
  25   2.0000       1.005808        27.3694
  26   2.0000       1.038676        28.2638
  27   2.0000       1.057775        28.7835
  28   2.0000       1.168180        31.7878
  29   2.0000       1.263134        34.3716
  30   2.0000       1.288495        35.0617
  31   2.0000       1.377937        37.4956
  32   2.0000       1.385091        37.6902
  33   2.0000       1.406258        38.2662
  34   2.0000       1.412504        38.4362
  35   2.0000       1.424698        38.7680
  36   2.0000       1.486162        40.4405
  37   2.0000       1.519573        41.3497
  38   2.0000       1.559211        42.4283
  39   2.0000       1.573336        42.8126
  40   2.0000       1.592631        43.3377
  41   2.0000       1.609881        43.8071
  42   2.0000       1.651514        44.9400
  43   2.0000       1.661189        45.2033
  44   2.0000       1.683209        45.8025
  45   2.0000       1.714617        46.6571
  46   2.0000       1.720210        46.8093
  47   2.0000       1.730083        47.0780
  48   2.0000       1.744564        47.4720
  49   2.0000       1.750561        47.6352
  50   2.0000       1.753638        47.7189
  51   2.0000       1.779186        48.4141
  52   2.0000       1.788713        48.6734
  53   2.0000       1.806169        49.1483
  54   2.0000       1.810386        49.2631
  55   2.0000       1.817766        49.4639
  56   2.0000       1.825861        49.6842
  57   2.0000       1.837251        49.9941
  58   2.0000       1.846236        50.2386
  59   2.0000       1.854851        50.4731
  60   2.0000       1.857926        50.5567
  61   2.0000       1.863260        50.7019
  62   2.0000       1.868510        50.8447
  63   2.0000       1.890394        51.4402
  64   2.0000       1.896604        51.6092
  65   2.0000       1.902490        51.7694
  66   2.0000       1.918642        52.2089
  67   2.0000       1.929459        52.5033
  68   2.0000       1.936227        52.6874
  69   2.0000       1.942001        52.8445
  70   2.0000       1.953972        53.1703
  71   2.0000       1.961194        53.3668
  72   2.0000       2.037551        55.4446
  73   2.0000       2.043011        55.5932
  74   2.0000       2.066982        56.2454
  75   2.0000       2.080593        56.6158
  76   2.0000       2.095433        57.0196
  77   0.0000       2.485701        67.6394
  78   0.0000       2.518668        68.5364
  79   0.0000       2.543874        69.2223
  80   0.0000       2.555076        69.5271
  81   0.0000       2.572774        70.0087

MULLIKEN ATOMIC CHARGES
-----------------------
   0 C :   -0.313484
   1 C :    0.035255
   2 O :   -0.327135
   3 C :    0.501704
   4 O :   -0.574374
   5 C :   -0.180036
   6 C :    0.124408
   7 C :   -0.266082
   8 N :   -0.092859
   9 C :    0.370179
  10 S :   -0.770295
  11 N :   -0.243356
  12 C :    0.124197
  13 C :   -0.001252
  14 C :   -0.258818
  15 C :   -0.160746
  16 C :   -0.258694
  17 C :    0.332100
  18 O :   -0.457826
  19 C :   -0.341937
  20 H :    0.097954
  21 H :    0.127071
  22 H :    0.106011
  23 H :    0.109374
  24 H :    0.130308
  25 H :    0.129803
  26 H :    0.134183
  27 H :    0.120598
  28 H :    0.256269
  29 H :    0.259968
  30 H :    0.176264
  31 H :    0.198108
  32 H :    0.209015
  33 H :    0.175128
  34 H :    0.331969
  35 H :    0.197026
Sum of atomic charges:    0.0000000

LOEWDIN ATOMIC CHARGES
----------------------
   0 C :    0.107759
   1 C :    0.005846
   2 O :    0.335928
   3 C :   -0.417162
   4 O :    0.034567
   5 C :   -0.109672
   6 C :   -0.067576
   7 C :    0.149220
   8 N :    0.438485
   9 C :   -0.406113
  10 S :   -0.250971
  11 N :    0.425434
  12 C :   -0.063168
  13 C :   -0.023189
  14 C :    0.016132
  15 C :    0.050132
  16 C :    0.010567
  17 C :   -0.207757
  18 O :    0.351605
  19 C :    0.006021
  20 H :   -0.031829
  21 H :   -0.015517
  22 H :   -0.024084
  23 H :   -0.032440
  24 H :   -0.017683
  25 H :   -0.012827
  26 H :   -0.001588
  27 H :   -0.008505
  28 H :   -0.015865
  29 H :   -0.030542
  30 H :    0.004943
  31 H :   -0.025384
  32 H :   -0.017313
  33 H :   -0.024867
  34 H :   -0.106103
  35 H :   -0.026484

  Mayer bond orders larger than 0.100000
B(  0-C ,  1-C ) :   0.9425 B(  0-C , 20-H ) :   0.9751 B(  0-C , 21-H ) :   0.9723
B(  0-C , 22-H ) :   0.9799 B(  1-C ,  2-O ) :   0.8774 B(  1-C , 23-H ) :   0.9825
B(  1-C , 24-H ) :   0.9850 B(  2-O ,  3-C ) :   1.2230 B(  3-C ,  4-O ) :   1.9116
B(  3-C ,  5-C ) :   1.0715 B(  5-C ,  6-C ) :   1.6406 B(  5-C , 12-C ) :   0.9896
B(  6-C ,  7-C ) :   0.9528 B(  6-C ,  8-N ) :   1.1312 B(  7-C , 25-H ) :   0.9652
B(  7-C , 26-H ) :   0.9593 B(  7-C , 27-H ) :   0.9866 B(  8-N ,  9-C ) :   1.3109
B(  8-N , 28-H ) :   0.9209 B(  9-C , 10-S ) :   1.2070 B(  9-C , 11-N ) :   1.4147
B( 11-N , 12-C ) :   0.9233 B( 11-N , 29-H ) :   0.9207 B( 12-C , 13-C ) :   0.9441
B( 12-C , 30-H ) :   0.9893 B( 13-C , 14-C ) :   1.4115 B( 13-C , 19-C ) :   1.2475
B( 14-C , 15-C ) :   1.3467 B( 14-C , 31-H ) :   0.9530 B( 15-C , 16-C ) :   1.4172
B( 15-C , 32-H ) :   0.9554 B( 16-C , 17-C ) :   1.3035 B( 16-C , 33-H ) :   0.9626
B( 17-C , 18-O ) :   1.0997 B( 17-C , 19-C ) :   1.4018 B( 18-O , 34-H ) :   0.9126
B( 19-C , 35-H ) :   0.9602

MP2 TOTAL ENERGY:    -1274.444527535 Eh
FINAL SINGLE POINT ENERGY     -1274.444527534661

DIPOLE MOMENT
-------------
                                X             Y             Z
Electronic contribution:      3.53474      -0.27881      13.52845
Nuclear contribution   :     -3.05530       1.38985     -16.95361
                        -----------------------------------------
Total Dipole Moment    :      0.47945       1.11104      -3.42516
                        -----------------------------------------
Magnitude (a.u.)       :      3.63263
Magnitude (Debye)      :      9.23340

Rotational constants in cm-1:     0.012075     0.009103     0.006467
Rotational constants in MHz :   361.999429   272.914036   193.865791

                             ****ORCA TERMINATED NORMALLY****
TOTAL RUN TIME: 0 days 2 hours 8 minutes 46 seconds 720 msec
