                         Program Version 5.0.0 -  RELEASE  -
|  1> ! RI-MP2 cc-pVTZ cc-pVTZ/c TightSCF KeepDens NoKeepInts
|  2>
|  3> *xyz  0  1
|  4>     C    -6.4897493   -9.5862583  -11.6148836
|  5>     C    -4.9569036   -9.4571827  -11.5091032
|  6>     O    -4.3913682   -9.0627130  -10.2240492
|  7>     C    -4.3092744  -10.0110060   -9.2829528
|  8>     O    -4.5393824  -11.1837937   -9.4877639
|  9>     C    -4.4267120   -9.4569987   -7.9226766
| 10>     C    -4.1191053   -8.2313967   -7.6131348
| 11>     C    -3.4872236   -7.0734226   -8.3791291
| 12>     N    -4.1683212   -7.8213780   -6.3020165
| 13>     C    -4.5518188   -8.6321208   -5.3014285
| 14>     S    -4.4230716   -8.0986726   -3.7382885
| 15>     N    -4.9048097   -9.9356568   -5.6318890
| 16>     C    -5.0238257  -10.4406767   -6.9872263
| 17>     C    -6.5319592  -10.6600038   -7.2256431
| 18>     C    -7.1470723  -11.8507900   -6.7014957
| 19>     C    -8.5770102  -12.0298756   -6.9152883
| 20>     C    -9.3039046  -11.0684972   -7.6843896
| 21>     C    -8.6896192   -9.8928014   -8.1640109
| 22>     O    -9.4347153   -8.9378871   -8.7878135
| 23>     C    -7.3778005   -9.6347251   -7.8144100
| 24>     H    -6.9193664   -9.8806564  -10.6495119
| 25>     H    -6.9088443  -10.2371299  -12.3920041
| 26>     H    -6.9639789   -8.6206013  -11.8288983
| 27>     H    -4.5546801  -10.4457509  -11.7623597
| 28>     H    -4.6717257   -8.7162552  -12.2660046
| 29>     H    -4.0322536   -6.8484226   -9.3040666
| 30>     H    -2.4950604   -7.4722609   -8.6235260
| 31>     H    -3.3307921   -6.1435170   -7.8187722
| 32>     H    -4.0529091   -6.8401209   -6.0789003
| 33>     H    -5.0834292  -10.6423157   -4.9285436
| 34>     H    -4.4610143  -11.3779689   -7.0761996
| 35>     H    -6.5396791  -12.6252348   -6.2424696
| 36>     H    -9.0127975  -12.9689539   -6.5872375
| 37>     H   -10.3167919  -11.2144696   -8.0479106
| 38>     H    -8.8656184   -8.1560394   -8.8953867
| 39>     H    -6.9165410   -8.7137029   -8.1584356
| 40> *
| 41>
| 42>                          ****END OF INPUT****

CARTESIAN COORDINATES (ANGSTROEM)
---------------------------------
  C     -6.489749   -9.586258  -11.614884
  C     -4.956904   -9.457183  -11.509103
  O     -4.391368   -9.062713  -10.224049
  C     -4.309274  -10.011006   -9.282953
  O     -4.539382  -11.183794   -9.487764
  C     -4.426712   -9.456999   -7.922677
  C     -4.119105   -8.231397   -7.613135
  C     -3.487224   -7.073423   -8.379129
  N     -4.168321   -7.821378   -6.302016
  C     -4.551819   -8.632121   -5.301429
  S     -4.423072   -8.098673   -3.738288
  N     -4.904810   -9.935657   -5.631889
  C     -5.023826  -10.440677   -6.987226
  C     -6.531959  -10.660004   -7.225643
  C     -7.147072  -11.850790   -6.701496
  C     -8.577010  -12.029876   -6.915288
  C     -9.303905  -11.068497   -7.684390
  C     -8.689619   -9.892801   -8.164011
  O     -9.434715   -8.937887   -8.787813
  C     -7.377801   -9.634725   -7.814410
  H     -6.919366   -9.880656  -10.649512
  H     -6.908844  -10.237130  -12.392004
  H     -6.963979   -8.620601  -11.828898
  H     -4.554680  -10.445751  -11.762360
  H     -4.671726   -8.716255  -12.266005
  H     -4.032254   -6.848423   -9.304067
  H     -2.495060   -7.472261   -8.623526
  H     -3.330792   -6.143517   -7.818772
  H     -4.052909   -6.840121   -6.078900
  H     -5.083429  -10.642316   -4.928544
  H     -4.461014  -11.377969   -7.076200
  H     -6.539679  -12.625235   -6.242470
  H     -9.012797  -12.968954   -6.587237
  H    -10.316792  -11.214470   -8.047911
  H     -8.865618   -8.156039   -8.895387
  H     -6.916541   -8.713703   -8.158436

 Total Charge           Charge          ....    0
 Multiplicity           Mult            ....    1
 Number of Electrons    NEL             ....  154
 Basis Dimension        Dim             ....  828

ORBITAL ENERGIES
----------------

  NO   OCC          E(Eh)            E(eV)
   0   2.0000     -91.885314     -2500.3265
   1   2.0000     -20.612997      -560.9082
   2   2.0000     -20.599212      -560.5331
   3   2.0000     -20.549486      -559.1799
   4   2.0000     -15.626360      -425.2149
   5   2.0000     -15.605921      -424.6587
   6   2.0000     -11.390737      -309.9577
   7   2.0000     -11.382883      -309.7440
   8   2.0000     -11.325041      -308.1700
   9   2.0000     -11.311897      -307.8124
  10   2.0000     -11.305345      -307.6341
  11   2.0000     -11.302459      -307.5556
  12   2.0000     -11.271171      -306.7041
  13   2.0000     -11.264254      -306.5159
  14   2.0000     -11.263898      -306.5062
  15   2.0000     -11.247568      -306.0619
  16   2.0000     -11.246421      -306.0307
  17   2.0000     -11.241954      -305.9091
  18   2.0000     -11.241726      -305.9029
  19   2.0000     -11.232898      -305.6627
  20   2.0000      -8.890415      -241.9205
  21   2.0000      -6.571980      -178.8327
  22   2.0000      -6.570002      -178.7789
  23   2.0000      -6.569399      -178.7624
  24   2.0000      -1.470693       -40.0196
  25   2.0000      -1.414881       -38.5009
  26   2.0000      -1.367441       -37.2100
  27   2.0000      -1.353741       -36.8372
  28   2.0000      -1.244872       -33.8747
  29   2.0000      -1.150352       -31.3027
  30   2.0000      -1.126504       -30.6537
  31   2.0000      -1.044546       -28.4235
  32   2.0000      -1.035160       -28.1681
  33   2.0000      -1.011697       -27.5297
  34   2.0000      -1.006144       -27.3786
  35   2.0000      -0.983386       -26.7593
  36   2.0000      -0.929058       -25.2809
  37   2.0000      -0.903451       -24.5841
  38   2.0000      -0.853298       -23.2194
  39   2.0000      -0.843298       -22.9473
  40   2.0000      -0.826794       -22.4982
  41   2.0000      -0.807632       -21.9768
  42   2.0000      -0.762557       -20.7502
  43   2.0000      -0.752984       -20.4897
  44   2.0000      -0.736685       -20.0462
  45   2.0000      -0.702512       -19.1163
  46   2.0000      -0.689841       -18.7715
  47   2.0000      -0.686738       -18.6871
  48   2.0000      -0.669927       -18.2296
  49   2.0000      -0.666797       -18.1445
  50   2.0000      -0.659704       -17.9515
  51   2.0000      -0.644733       -17.5441
  52   2.0000      -0.629862       -17.1394
  53   2.0000      -0.618159       -16.8210
  54   2.0000      -0.611780       -16.6474
  55   2.0000      -0.599691       -16.3184
  56   2.0000      -0.596207       -16.2236
  57   2.0000      -0.586163       -15.9503
  58   2.0000      -0.573361       -15.6020
  59   2.0000      -0.571033       -15.5386
  60   2.0000      -0.564545       -15.3621
  61   2.0000      -0.557016       -15.1572
  62   2.0000      -0.540615       -14.7109
  63   2.0000      -0.529495       -14.4083
  64   2.0000      -0.522981       -14.2310
  65   2.0000      -0.503494       -13.7008
  66   2.0000      -0.498084       -13.5536
  67   2.0000      -0.494756       -13.4630
  68   2.0000      -0.478123       -13.0104
  69   2.0000      -0.468829       -12.7575
  70   2.0000      -0.457856       -12.4589
  71   2.0000      -0.455078       -12.3833
  72   2.0000      -0.364137        -9.9087
  73   2.0000      -0.338041        -9.1986
  74   2.0000      -0.325833        -8.8664
  75   2.0000      -0.320131        -8.7112
  76   2.0000      -0.311452        -8.4750
  77   0.0000       0.079052         2.1511
  78   0.0000       0.103205         2.8084
  79   0.0000       0.110309         3.0017
  80   0.0000       0.127627         3.4729
  81   0.0000       0.130326         3.5464

MULLIKEN ATOMIC CHARGES
-----------------------
   0 C :   -0.315937
   1 C :    0.038210
   2 O :   -0.348000
   3 C :    0.439290
   4 O :   -0.423099
   5 C :   -0.206495
   6 C :    0.118895
   7 C :   -0.282248
   8 N :   -0.081600
   9 C :    0.205522
  10 S :   -0.453218
  11 N :   -0.218766
  12 C :    0.080616
  13 C :    0.083908
  14 C :   -0.242468
  15 C :   -0.119418
  16 C :   -0.229133
  17 C :    0.306649
  18 O :   -0.362386
  19 C :   -0.304949
  20 H :    0.122979
  21 H :    0.118061
  22 H :    0.082780
  23 H :    0.112052
  24 H :    0.110203
  25 H :    0.124527
  26 H :    0.124517
  27 H :    0.106070
  28 H :    0.193140
  29 H :    0.193068
  30 H :    0.160783
  31 H :    0.160714
  32 H :    0.167505
  33 H :    0.158667
  34 H :    0.244269
  35 H :    0.135293
Sum of atomic charges:    0.0000000

LOEWDIN ATOMIC CHARGES
----------------------
   0 C :    0.106558
   1 C :   -0.000163
   2 O :    0.318637
   3 C :   -0.448613
   4 O :    0.129130
   5 C :   -0.116562
   6 C :   -0.089799
   7 C :    0.136466
   8 N :    0.415570
   9 C :   -0.448043
  10 S :   -0.046200
  11 N :    0.401119
  12 C :   -0.070548
  13 C :    0.000847
  14 C :    0.020831
  15 C :    0.062380
  16 C :    0.019556
  17 C :   -0.199205
  18 O :    0.387283
  19 C :    0.001448
  20 H :   -0.025307
  21 H :   -0.018413
  22 H :   -0.033681
  23 H :   -0.029677
  24 H :   -0.027344
  25 H :   -0.018564
  26 H :   -0.007196
  27 H :   -0.019033
  28 H :   -0.047218
  29 H :   -0.062915
  30 H :   -0.001072
  31 H :   -0.038603
  32 H :   -0.027629
  33 H :   -0.029582
  34 H :   -0.149897
  35 H :   -0.044557

  Mayer bond orders larger than 0.100000
B(  0-C ,  1-C ) :   0.9396 B(  0-C , 20-H ) :   0.9715 B(  0-C , 21-H ) :   0.9758
B(  0-C , 22-H ) :   0.9828 B(  1-C ,  2-O ) :   0.8947 B(  1-C , 23-H ) :   0.9804
B(  1-C , 24-H ) :   0.9890 B(  2-O ,  3-C ) :   1.1718 B(  3-C ,  4-O ) :   1.9911
B(  3-C ,  5-C ) :   1.0398 B(  5-C ,  6-C ) :   1.6458 B(  5-C , 12-C ) :   0.9985
B(  6-C ,  7-C ) :   0.9479 B(  6-C ,  8-N ) :   1.1403 B(  7-C , 25-H ) :   0.9701
B(  7-C , 26-H ) :   0.9639 B(  7-C , 27-H ) :   0.9908 B(  8-N ,  9-C ) :   1.2092
B(  8-N , 28-H ) :   0.9449 B(  9-C , 10-S ) :   1.5815 B(  9-C , 11-N ) :   1.3000
B( 11-N , 12-C ) :   0.9404 B( 11-N , 29-H ) :   0.9558 B( 12-C , 13-C ) :   0.9596
B( 12-C , 30-H ) :   0.9868 B( 13-C , 14-C ) :   1.4126 B( 13-C , 19-C ) :   1.2815
B( 14-C , 15-C ) :   1.3639 B( 14-C , 31-H ) :   0.9633 B( 15-C , 16-C ) :   1.4271
B( 15-C , 32-H ) :   0.9684 B( 16-C , 17-C ) :   1.3252 B( 16-C , 33-H ) :   0.9671
B( 17-C , 18-O ) :   1.1067 B( 17-C , 19-C ) :   1.3865 B( 18-O , 34-H ) :   0.9767
B( 19-C , 35-H ) :   0.9750

MP2 TOTAL ENERGY:    -1274.299453224 Eh
FINAL SINGLE POINT ENERGY     -1274.299453224344

DIPOLE MOMENT
-------------
                                X             Y             Z
Electronic contribution:      3.33451      -0.79009      14.88987
Nuclear contribution   :     -3.05530       1.38985     -16.95361
                        -----------------------------------------
Total Dipole Moment    :      0.27922       0.59976      -2.06374
                        -----------------------------------------
Magnitude (a.u.)       :      2.16718
Magnitude (Debye)      :      5.50854

Rotational constants in cm-1:     0.012075     0.009103     0.006467
Rotational constants in MHz :   361.999429   272.914036   193.865791

                             ****ORCA TERMINATED NORMALLY****
TOTAL RUN TIME: 0 days 1 hours 37 minutes 24 seconds 975 msec
