                         Program Version 5.0.0 -  RELEASE  -
|  1> ! RI-MP2 cc-pVTZ cc-pVTZ/c TightSCF KeepDens NoKeepInts
|  2>
|  3> *xyz  0  1
|  4>     C    -4.8435224    1.6644947   13.4559337
|  5>     C    -5.4001269    1.4361974   12.0999979
|  6>     O    -6.7655847    1.8943828   12.1663082
|  7>     C    -7.6267001    1.6887872   11.1227737
|  8>     O    -7.2634314    0.9552054   10.1937310
|  9>     C    -8.9817413    2.2129360   11.3431658
| 10>     C    -9.9207977    2.1247215   10.4085822
| 11>     C    -9.7467819    1.5847540    8.9607708
| 12>     N   -11.1162755    2.7562564   10.6282089
| 13>     C   -11.4802949    3.3286201   11.7860586
| 14>     S   -12.9517355    4.1235993   11.9932489
| 15>     N   -10.6028707    3.2520380   12.8673963
| 16>     C    -9.3249648    2.5755791   12.8575237
| 17>     C    -9.2814425    1.3183271   13.6994058
| 18>     C   -10.1915849    0.2108841   13.4364241
| 19>     C   -10.1601546   -0.9380840   14.2102972
| 20>     C    -9.2188946   -1.0264479   15.2521407
| 21>     C    -8.4075906    0.1149936   15.5591735
| 22>     O    -7.6289045    0.0720308   16.6509651
| 23>     C    -8.5108108    1.2814257   14.8379123
| 24>     H    -5.0603184    0.9307980   14.2419807
| 25>     H    -5.0059798    2.6615525   13.8833382
| 26>     H    -3.7605153    1.6697372   13.2819861
| 27>     H    -4.9793048    2.0653920   11.3061382
| 28>     H    -5.2659643    0.3759374   11.8529380
| 29>     H   -10.5576661    1.8804012    8.2838266
| 30>     H    -9.7727343    0.4886554    8.9278340
| 31>     H    -8.8655981    2.0341866    8.4867297
| 32>     H   -11.7903241    2.7864426    9.8727507
| 33>     H   -11.0039048    3.6700685   13.6982926
| 34>     H    -8.5327601    3.2460630   13.2125739
| 35>     H   -10.8123098    0.2278518   12.5454646
| 36>     H   -10.8409232   -1.7352411   13.9265805
| 37>     H    -9.2426099   -1.8939139   15.9050890
| 38>     H    -7.4202664   -0.8621896   16.8254135
| 39>     H    -7.8817328    2.0913989   15.1951249
| 40> *
| 41>
| 42>                          ****END OF INPUT****

CARTESIAN COORDINATES (ANGSTROEM)
---------------------------------
  C     -4.843522    1.664495   13.455934
  C     -5.400127    1.436197   12.099998
  O     -6.765585    1.894383   12.166308
  C     -7.626700    1.688787   11.122774
  O     -7.263431    0.955205   10.193731
  C     -8.981741    2.212936   11.343166
  C     -9.920798    2.124722   10.408582
  C     -9.746782    1.584754    8.960771
  N    -11.116276    2.756256   10.628209
  C    -11.480295    3.328620   11.786059
  S    -12.951735    4.123599   11.993249
  N    -10.602871    3.252038   12.867396
  C     -9.324965    2.575579   12.857524
  C     -9.281443    1.318327   13.699406
  C    -10.191585    0.210884   13.436424
  C    -10.160155   -0.938084   14.210297
  C     -9.218895   -1.026448   15.252141
  C     -8.407591    0.114994   15.559173
  O     -7.628904    0.072031   16.650965
  C     -8.510811    1.281426   14.837912
  H     -5.060318    0.930798   14.241981
  H     -5.005980    2.661552   13.883338
  H     -3.760515    1.669737   13.281986
  H     -4.979305    2.065392   11.306138
  H     -5.265964    0.375937   11.852938
  H    -10.557666    1.880401    8.283827
  H     -9.772734    0.488655    8.927834
  H     -8.865598    2.034187    8.486730
  H    -11.790324    2.786443    9.872751
  H    -11.003905    3.670069   13.698293
  H     -8.532760    3.246063   13.212574
  H    -10.812310    0.227852   12.545465
  H    -10.840923   -1.735241   13.926580
  H     -9.242610   -1.893914   15.905089
  H     -7.420266   -0.862190   16.825413
  H     -7.881733    2.091399   15.195125

 Total Charge           Charge          ....    0
 Multiplicity           Mult            ....    1
 Number of Electrons    NEL             ....  154
 Basis Dimension        Dim             ....  828

ORBITAL ENERGIES
----------------

  NO   OCC          E(Eh)            E(eV)
   0   2.0000     -91.889834     -2500.4495
   1   2.0000     -20.597690      -560.4916
   2   2.0000     -20.594014      -560.3916
   3   2.0000     -20.533992      -558.7583
   4   2.0000     -15.635241      -425.4565
   5   2.0000     -15.608816      -424.7375
   6   2.0000     -11.388269      -309.8906
   7   2.0000     -11.388114      -309.8863
   8   2.0000     -11.333342      -308.3959
   9   2.0000     -11.311904      -307.8125
  10   2.0000     -11.311510      -307.8018
  11   2.0000     -11.293477      -307.3111
  12   2.0000     -11.261930      -306.4527
  13   2.0000     -11.258412      -306.3570
  14   2.0000     -11.256962      -306.3175
  15   2.0000     -11.250285      -306.1358
  16   2.0000     -11.243213      -305.9434
  17   2.0000     -11.238820      -305.8238
  18   2.0000     -11.234676      -305.7111
  19   2.0000     -11.225233      -305.4541
  20   2.0000      -8.893834      -242.0135
  21   2.0000      -6.575299      -178.9230
  22   2.0000      -6.573384      -178.8709
  23   2.0000      -6.572834      -178.8559
  24   2.0000      -1.444595       -39.3094
  25   2.0000      -1.423491       -38.7352
  26   2.0000      -1.353169       -36.8216
  27   2.0000      -1.337656       -36.3995
  28   2.0000      -1.244960       -33.8771
  29   2.0000      -1.157290       -31.4915
  30   2.0000      -1.122387       -30.5417
  31   2.0000      -1.051860       -28.6226
  32   2.0000      -1.044935       -28.4341
  33   2.0000      -1.016354       -27.6564
  34   2.0000      -0.993396       -27.0317
  35   2.0000      -0.980541       -26.6819
  36   2.0000      -0.926852       -25.2209
  37   2.0000      -0.888675       -24.1821
  38   2.0000      -0.855201       -23.2712
  39   2.0000      -0.841425       -22.8963
  40   2.0000      -0.827474       -22.5167
  41   2.0000      -0.821001       -22.3406
  42   2.0000      -0.765633       -20.8339
  43   2.0000      -0.735357       -20.0101
  44   2.0000      -0.719759       -19.5856
  45   2.0000      -0.696152       -18.9433
  46   2.0000      -0.689260       -18.7557
  47   2.0000      -0.681709       -18.5503
  48   2.0000      -0.670567       -18.2470
  49   2.0000      -0.666612       -18.1394
  50   2.0000      -0.653073       -17.7710
  51   2.0000      -0.642719       -17.4893
  52   2.0000      -0.636458       -17.3189
  53   2.0000      -0.621031       -16.8991
  54   2.0000      -0.606959       -16.5162
  55   2.0000      -0.602501       -16.3949
  56   2.0000      -0.588219       -16.0063
  57   2.0000      -0.579061       -15.7570
  58   2.0000      -0.573036       -15.5931
  59   2.0000      -0.561104       -15.2684
  60   2.0000      -0.557312       -15.1652
  61   2.0000      -0.538057       -14.6413
  62   2.0000      -0.532136       -14.4801
  63   2.0000      -0.523304       -14.2398
  64   2.0000      -0.521741       -14.1973
  65   2.0000      -0.507173       -13.8009
  66   2.0000      -0.503986       -13.7142
  67   2.0000      -0.498879       -13.5752
  68   2.0000      -0.481013       -13.0890
  69   2.0000      -0.464894       -12.6504
  70   2.0000      -0.451748       -12.2927
  71   2.0000      -0.439791       -11.9673
  72   2.0000      -0.360541        -9.8108
  73   2.0000      -0.353072        -9.6076
  74   2.0000      -0.327496        -8.9116
  75   2.0000      -0.323453        -8.8016
  76   2.0000      -0.306621        -8.3436
  77   0.0000       0.068032         1.8512
  78   0.0000       0.113157         3.0791
  79   0.0000       0.121245         3.2992
  80   0.0000       0.128473         3.4959
  81   0.0000       0.133597         3.6353

MULLIKEN ATOMIC CHARGES
-----------------------
   0 C :   -0.301281
   1 C :    0.058157
   2 O :   -0.349071
   3 C :    0.428107
   4 O :   -0.448552
   5 C :   -0.119405
   6 C :    0.066962
   7 C :   -0.267585
   8 N :   -0.079106
   9 C :    0.206174
  10 S :   -0.454890
  11 N :   -0.211530
  12 C :    0.030719
  13 C :    0.059407
  14 C :   -0.213406
  15 C :   -0.127577
  16 C :   -0.279389
  17 C :    0.309529
  18 O :   -0.364763
  19 C :   -0.223248
  20 H :    0.111145
  21 H :    0.098774
  22 H :    0.097015
  23 H :    0.093029
  24 H :    0.104376
  25 H :    0.092431
  26 H :    0.130602
  27 H :    0.135413
  28 H :    0.203464
  29 H :    0.198097
  30 H :    0.155752
  31 H :    0.151955
  32 H :    0.162854
  33 H :    0.136520
  34 H :    0.246580
  35 H :    0.162742
Sum of atomic charges:    0.0000000

LOEWDIN ATOMIC CHARGES
----------------------
   0 C :    0.091538
   1 C :   -0.022542
   2 O :    0.306524
   3 C :   -0.405381
   4 O :    0.066252
   5 C :   -0.088942
   6 C :   -0.074831
   7 C :    0.145071
   8 N :    0.417678
   9 C :   -0.416985
  10 S :   -0.072662
  11 N :    0.392065
  12 C :   -0.056094
  13 C :   -0.030397
  14 C :    0.026512
  15 C :    0.029698
  16 C :    0.006398
  17 C :   -0.202132
  18 O :    0.400986
  19 C :    0.015690
  20 H :   -0.022243
  21 H :   -0.023475
  22 H :   -0.017861
  23 H :   -0.024634
  24 H :   -0.019984
  25 H :   -0.026564
  26 H :   -0.010118
  27 H :   -0.007104
  28 H :   -0.041477
  29 H :   -0.068382
  30 H :   -0.013433
  31 H :   -0.033464
  32 H :   -0.019566
  33 H :   -0.037874
  34 H :   -0.144108
  35 H :   -0.018161

  Mayer bond orders larger than 0.100000
B(  0-C ,  1-C ) :   0.9701 B(  0-C , 20-H ) :   0.9765 B(  0-C , 21-H ) :   0.9748
B(  0-C , 22-H ) :   0.9798 B(  1-C ,  2-O ) :   0.8900 B(  1-C , 23-H ) :   0.9846
B(  1-C , 24-H ) :   0.9711 B(  2-O ,  3-C ) :   1.1853 B(  3-C ,  4-O ) :   1.9516
B(  3-C ,  5-C ) :   1.0393 B(  5-C ,  6-C ) :   1.6580 B(  5-C , 12-C ) :   0.9739
B(  6-C ,  7-C ) :   0.9622 B(  6-C ,  8-N ) :   1.1622 B(  7-C , 25-H ) :   0.9887
B(  7-C , 26-H ) :   0.9643 B(  7-C , 27-H ) :   0.9605 B(  8-N ,  9-C ) :   1.2343
B(  8-N , 28-H ) :   0.9453 B(  9-C , 10-S ) :   1.5590 B(  9-C , 11-N ) :   1.2838
B( 11-N , 12-C ) :   1.0055 B( 11-N , 29-H ) :   0.9453 B( 12-C , 13-C ) :   0.9303
B( 12-C , 30-H ) :   1.0026 B( 13-C , 14-C ) :   1.3443 B( 13-C , 19-C ) :   1.3935
B( 14-C , 15-C ) :   1.4380 B( 14-C , 31-H ) :   0.9718 B( 15-C , 16-C ) :   1.3363
B( 15-C , 32-H ) :   0.9694 B( 16-C , 17-C ) :   1.3613 B( 16-C , 33-H ) :   0.9806
B( 17-C , 18-O ) :   1.0706 B( 17-C , 19-C ) :   1.3647 B( 18-O , 34-H ) :   0.9744
B( 19-C , 35-H ) :   0.9530

MP2 TOTAL ENERGY:    -1274.316826932 Eh
FINAL SINGLE POINT ENERGY     -1274.316826931834

DIPOLE MOMENT
-------------
                                X             Y             Z
Electronic contribution:    -13.43704       5.79675       0.56224
Nuclear contribution   :     14.88421      -7.02991      -0.50331
                        -----------------------------------------
Total Dipole Moment    :      1.44717      -1.23315       0.05894
                        -----------------------------------------
Magnitude (a.u.)       :      1.90222
Magnitude (Debye)      :      4.83506

Rotational constants in cm-1:     0.012971     0.007971     0.005976
Rotational constants in MHz :   388.870071   238.975052   179.169420

                             ****ORCA TERMINATED NORMALLY****
TOTAL RUN TIME: 0 days 2 hours 7 minutes 41 seconds 3 msec
