                         Program Version 5.0.0 -  RELEASE  -
|  1> ! RI-MP2 cc-pVTZ cc-pVTZ/c TightSCF KeepDens NoKeepInts
|  2>
|  3> %pointcharges "srfp_output"
|  4>
|  5> *xyz  0  1
|  6>     C    -4.8435224    1.6644947   13.4559337
|  7>     C    -5.4001269    1.4361974   12.0999979
|  8>     O    -6.7655847    1.8943828   12.1663082
|  9>     C    -7.6267001    1.6887872   11.1227737
| 10>     O    -7.2634314    0.9552054   10.1937310
| 11>     C    -8.9817413    2.2129360   11.3431658
| 12>     C    -9.9207977    2.1247215   10.4085822
| 13>     C    -9.7467819    1.5847540    8.9607708
| 14>     N   -11.1162755    2.7562564   10.6282089
| 15>     C   -11.4802949    3.3286201   11.7860586
| 16>     S   -12.9517355    4.1235993   11.9932489
| 17>     N   -10.6028707    3.2520380   12.8673963
| 18>     C    -9.3249648    2.5755791   12.8575237
| 19>     C    -9.2814425    1.3183271   13.6994058
| 20>     C   -10.1915849    0.2108841   13.4364241
| 21>     C   -10.1601546   -0.9380840   14.2102972
| 22>     C    -9.2188946   -1.0264479   15.2521407
| 23>     C    -8.4075906    0.1149936   15.5591735
| 24>     O    -7.6289045    0.0720308   16.6509651
| 25>     C    -8.5108108    1.2814257   14.8379123
| 26>     H    -5.0603184    0.9307980   14.2419807
| 27>     H    -5.0059798    2.6615525   13.8833382
| 28>     H    -3.7605153    1.6697372   13.2819861
| 29>     H    -4.9793048    2.0653920   11.3061382
| 30>     H    -5.2659643    0.3759374   11.8529380
| 31>     H   -10.5576661    1.8804012    8.2838266
| 32>     H    -9.7727343    0.4886554    8.9278340
| 33>     H    -8.8655981    2.0341866    8.4867297
| 34>     H   -11.7903241    2.7864426    9.8727507
| 35>     H   -11.0039048    3.6700685   13.6982926
| 36>     H    -8.5327601    3.2460630   13.2125739
| 37>     H   -10.8123098    0.2278518   12.5454646
| 38>     H   -10.8409232   -1.7352411   13.9265805
| 39>     H    -9.2426099   -1.8939139   15.9050890
| 40>     H    -7.4202664   -0.8621896   16.8254135
| 41>     H    -7.8817328    2.0913989   15.1951249
| 42> *
| 43>
| 44>                          ****END OF INPUT****

CARTESIAN COORDINATES (ANGSTROEM)
---------------------------------
  C     -4.843522    1.664495   13.455934
  C     -5.400127    1.436197   12.099998
  O     -6.765585    1.894383   12.166308
  C     -7.626700    1.688787   11.122774
  O     -7.263431    0.955205   10.193731
  C     -8.981741    2.212936   11.343166
  C     -9.920798    2.124722   10.408582
  C     -9.746782    1.584754    8.960771
  N    -11.116276    2.756256   10.628209
  C    -11.480295    3.328620   11.786059
  S    -12.951735    4.123599   11.993249
  N    -10.602871    3.252038   12.867396
  C     -9.324965    2.575579   12.857524
  C     -9.281443    1.318327   13.699406
  C    -10.191585    0.210884   13.436424
  C    -10.160155   -0.938084   14.210297
  C     -9.218895   -1.026448   15.252141
  C     -8.407591    0.114994   15.559173
  O     -7.628904    0.072031   16.650965
  C     -8.510811    1.281426   14.837912
  H     -5.060318    0.930798   14.241981
  H     -5.005980    2.661552   13.883338
  H     -3.760515    1.669737   13.281986
  H     -4.979305    2.065392   11.306138
  H     -5.265964    0.375937   11.852938
  H    -10.557666    1.880401    8.283827
  H     -9.772734    0.488655    8.927834
  H     -8.865598    2.034187    8.486730
  H    -11.790324    2.786443    9.872751
  H    -11.003905    3.670069   13.698293
  H     -8.532760    3.246063   13.212574
  H    -10.812310    0.227852   12.545465
  H    -10.840923   -1.735241   13.926580
  H     -9.242610   -1.893914   15.905089
  H     -7.420266   -0.862190   16.825413
  H     -7.881733    2.091399   15.195125

 Total Charge           Charge          ....    0
 Multiplicity           Mult            ....    1
 Number of Electrons    NEL             ....  154
 Basis Dimension        Dim             ....  828

ORBITAL ENERGIES
----------------

  NO   OCC          E(Eh)            E(eV)
   0   2.0000     -92.751227     -2523.8892
   1   2.0000     -21.452067      -583.7404
   2   2.0000     -21.441279      -583.4469
   3   2.0000     -21.402381      -582.3884
   4   2.0000     -16.477560      -448.3772
   5   2.0000     -16.456702      -447.8096
   6   2.0000     -12.255070      -333.4774
   7   2.0000     -12.245486      -333.2166
   8   2.0000     -12.180923      -331.4598
   9   2.0000     -12.161601      -330.9340
  10   2.0000     -12.158171      -330.8407
  11   2.0000     -12.138521      -330.3059
  12   2.0000     -12.111955      -329.5831
  13   2.0000     -12.104102      -329.3694
  14   2.0000     -12.097981      -329.2028
  15   2.0000     -12.092366      -329.0500
  16   2.0000     -12.091607      -329.0294
  17   2.0000     -12.088106      -328.9341
  18   2.0000     -12.085723      -328.8692
  19   2.0000     -12.063778      -328.2721
  20   2.0000      -9.756486      -265.4875
  21   2.0000      -7.438284      -202.4060
  22   2.0000      -7.436376      -202.3541
  23   2.0000      -7.435928      -202.3419
  24   2.0000      -2.306401       -62.7604
  25   2.0000      -2.269128       -61.7461
  26   2.0000      -2.205503       -60.0148
  27   2.0000      -2.197979       -59.8101
  28   2.0000      -2.090132       -56.8754
  29   2.0000      -2.008675       -54.6588
  30   2.0000      -1.971879       -53.6576
  31   2.0000      -1.897233       -51.6263
  32   2.0000      -1.893786       -51.5325
  33   2.0000      -1.864839       -50.7448
  34   2.0000      -1.841007       -50.0963
  35   2.0000      -1.830085       -49.7991
  36   2.0000      -1.773154       -48.2500
  37   2.0000      -1.737748       -47.2865
  38   2.0000      -1.702105       -46.3166
  39   2.0000      -1.688713       -45.9522
  40   2.0000      -1.675621       -45.5960
  41   2.0000      -1.668117       -45.3918
  42   2.0000      -1.617001       -44.0008
  43   2.0000      -1.582817       -43.0706
  44   2.0000      -1.570840       -42.7447
  45   2.0000      -1.542650       -41.9776
  46   2.0000      -1.539580       -41.8941
  47   2.0000      -1.536425       -41.8083
  48   2.0000      -1.530101       -41.6362
  49   2.0000      -1.513684       -41.1894
  50   2.0000      -1.498531       -40.7771
  51   2.0000      -1.494783       -40.6751
  52   2.0000      -1.480304       -40.2811
  53   2.0000      -1.466709       -39.9112
  54   2.0000      -1.455872       -39.6163
  55   2.0000      -1.447789       -39.3963
  56   2.0000      -1.437993       -39.1298
  57   2.0000      -1.430019       -38.9128
  58   2.0000      -1.418498       -38.5993
  59   2.0000      -1.408341       -38.3229
  60   2.0000      -1.397577       -38.0300
  61   2.0000      -1.382953       -37.6321
  62   2.0000      -1.379573       -37.5401
  63   2.0000      -1.372918       -37.3590
  64   2.0000      -1.367718       -37.2175
  65   2.0000      -1.364629       -37.1335
  66   2.0000      -1.357239       -36.9324
  67   2.0000      -1.346576       -36.6422
  68   2.0000      -1.333344       -36.2821
  69   2.0000      -1.314035       -35.7567
  70   2.0000      -1.311902       -35.6987
  71   2.0000      -1.301467       -35.4147
  72   2.0000      -1.210752       -32.9462
  73   2.0000      -1.204960       -32.7886
  74   2.0000      -1.192177       -32.4408
  75   2.0000      -1.186128       -32.2762
  76   2.0000      -1.162329       -31.6286
  77   0.0000      -0.785063       -21.3626
  78   0.0000      -0.737285       -20.0625
  79   0.0000      -0.719584       -19.5809
  80   0.0000      -0.704567       -19.1722
  81   0.0000      -0.693648       -18.8751

MULLIKEN ATOMIC CHARGES
-----------------------
   0 C :   -0.300231
   1 C :    0.034290
   2 O :   -0.345163
   3 C :    0.465621
   4 O :   -0.567182
   5 C :   -0.135239
   6 C :    0.089570
   7 C :   -0.263760
   8 N :   -0.088363
   9 C :    0.295392
  10 S :   -0.625742
  11 N :   -0.231585
  12 C :    0.056595
  13 C :   -0.003160
  14 C :   -0.236760
  15 C :   -0.134451
  16 C :   -0.315591
  17 C :    0.278830
  18 O :   -0.440675
  19 C :   -0.218352
  20 H :    0.112783
  21 H :    0.102766
  22 H :    0.111340
  23 H :    0.111161
  24 H :    0.113558
  25 H :    0.121353
  26 H :    0.132939
  27 H :    0.126792
  28 H :    0.262864
  29 H :    0.250670
  30 H :    0.172838
  31 H :    0.188289
  32 H :    0.194441
  33 H :    0.177998
  34 H :    0.329125
  35 H :    0.177038
Sum of atomic charges:    0.0000000

LOEWDIN ATOMIC CHARGES
----------------------
   0 C :    0.094921
   1 C :   -0.022911
   2 O :    0.309889
   3 C :   -0.390885
   4 O :   -0.011568
   5 C :   -0.092745
   6 C :   -0.057041
   7 C :    0.151818
   8 N :    0.435280
   9 C :   -0.390144
  10 S :   -0.184532
  11 N :    0.406797
  12 C :   -0.049862
  13 C :   -0.043783
  14 C :    0.022520
  15 C :    0.027081
  16 C :    0.005056
  17 C :   -0.226062
  18 O :    0.371113
  19 C :    0.006818
  20 H :   -0.021582
  21 H :   -0.021655
  22 H :   -0.010897
  23 H :   -0.020522
  24 H :   -0.018362
  25 H :   -0.011957
  26 H :   -0.008858
  27 H :   -0.009391
  28 H :   -0.011501
  29 H :   -0.044872
  30 H :   -0.007308
  31 H :   -0.023974
  32 H :   -0.009811
  33 H :   -0.023400
  34 H :   -0.104447
  35 H :   -0.013221

  Mayer bond orders larger than 0.100000
B(  0-C ,  1-C ) :   0.9764 B(  0-C , 20-H ) :   0.9754 B(  0-C , 21-H ) :   0.9730
B(  0-C , 22-H ) :   0.9772 B(  1-C ,  2-O ) :   0.8727 B(  1-C , 23-H ) :   0.9798
B(  1-C , 24-H ) :   0.9686 B(  2-O ,  3-C ) :   1.2164 B(  3-C ,  4-O ) :   1.8800
B(  3-C ,  5-C ) :   1.0748 B(  5-C ,  6-C ) :   1.6146 B(  5-C , 12-C ) :   0.9700
B(  6-C ,  7-C ) :   0.9517 B(  6-C ,  8-N ) :   1.1816 B(  7-C , 25-H ) :   0.9839
B(  7-C , 26-H ) :   0.9632 B(  7-C , 27-H ) :   0.9627 B(  8-N ,  9-C ) :   1.2900
B(  8-N , 28-H ) :   0.9167 B(  9-C , 10-S ) :   1.3839 B(  9-C , 11-N ) :   1.3457
B( 11-N , 12-C ) :   1.0039 B( 11-N , 29-H ) :   0.9230 B( 12-C , 13-C ) :   0.9206
B( 12-C , 30-H ) :   0.9993 B( 13-C , 14-C ) :   1.3383 B( 13-C , 19-C ) :   1.3939
B( 14-C , 15-C ) :   1.4178 B( 14-C , 31-H ) :   0.9621 B( 15-C , 16-C ) :   1.3095
B( 15-C , 32-H ) :   0.9604 B( 16-C , 17-C ) :   1.3629 B( 16-C , 33-H ) :   0.9710
B( 17-C , 18-O ) :   1.0790 B( 17-C , 19-C ) :   1.3554 B( 18-O , 34-H ) :   0.9124
B( 19-C , 35-H ) :   0.9453

MP2 TOTAL ENERGY:    -1274.418518714 Eh
FINAL SINGLE POINT ENERGY     -1274.418518713511

DIPOLE MOMENT
-------------
                                X             Y             Z
Electronic contribution:    -13.16801       5.50160       0.56550
Nuclear contribution   :     14.88421      -7.02991      -0.50331
                        -----------------------------------------
Total Dipole Moment    :      1.71620      -1.52831       0.06219
                        -----------------------------------------
Magnitude (a.u.)       :      2.29890
Magnitude (Debye)      :      5.84334

Rotational constants in cm-1:     0.012971     0.007971     0.005976
Rotational constants in MHz :   388.870071   238.975052   179.169420

                             ****ORCA TERMINATED NORMALLY****
TOTAL RUN TIME: 0 days 2 hours 3 minutes 40 seconds 189 msec
