                         Program Version 5.0.0 -  RELEASE  -
|  1> ! RI-MP2 cc-pVTZ cc-pVTZ/c TightSCF KeepDens NoKeepInts
|  2>
|  3> *xyz  0  1
|  4>     C    -1.4905696   13.7970861    9.6224204
|  5>     C    -1.1760527   13.5300349    8.1278132
|  6>     O    -2.1551040   12.6856714    7.6646444
|  7>     C    -2.0428788   12.1929461    6.3853975
|  8>     O    -1.0585548   12.3791569    5.6950942
|  9>     C    -3.3049358   11.7032169    5.8320548
| 10>     C    -4.4983409   11.5209556    6.5024558
| 11>     C    -4.8520457   11.9136492    7.9496020
| 12>     N    -5.5865577   11.0639899    5.8511071
| 13>     C    -5.4809056   10.4545586    4.6298909
| 14>     S    -6.8105557    9.8150821    3.8682099
| 15>     N    -4.3014602   10.5683301    3.9437184
| 16>     C    -3.2065297   11.4658153    4.3686877
| 17>     C    -3.0886710   12.7121886    3.4528040
| 18>     C    -2.4858786   12.6991143    2.2096627
| 19>     C    -2.5430754   13.8051633    1.3270792
| 20>     C    -3.2511082   15.0161928    1.7694840
| 21>     C    -3.7656489   15.0268330    3.0908676
| 22>     O    -4.3372014   16.1528578    3.4909499
| 23>     C    -3.7385491   13.9099374    3.8794696
| 24>     H    -0.9360338   13.0998992   10.2624283
| 25>     H    -2.5264629   13.5014015    9.8290435
| 26>     H    -1.1713521   14.8122506    9.8883738
| 27>     H    -1.1825379   14.4829760    7.5846274
| 28>     H    -0.1583439   13.1251793    8.0681737
| 29>     H    -5.8734070   11.5854399    8.1782720
| 30>     H    -4.9492339   12.9888394    8.1437929
| 31>     H    -4.1311351   11.6126368    8.7195791
| 32>     H    -6.4905059   11.0945744    6.3070771
| 33>     H    -4.3314867   10.1437913    3.0245712
| 34>     H    -2.3103819   10.8564659    4.1989759
| 35>     H    -1.9823322   11.7995961    1.8680431
| 36>     H    -2.0518610   13.7824907    0.3587866
| 37>     H    -3.4110713   15.8822153    1.1340213
| 38>     H    -4.0180312   16.2933804    4.3993074
| 39>     H    -4.1302736   13.9341426    4.8920712
| 40> *
| 41>
| 42>                          ****END OF INPUT****

CARTESIAN COORDINATES (ANGSTROEM)
---------------------------------
  C     -1.490570   13.797086    9.622420
  C     -1.176053   13.530035    8.127813
  O     -2.155104   12.685671    7.664644
  C     -2.042879   12.192946    6.385397
  O     -1.058555   12.379157    5.695094
  C     -3.304936   11.703217    5.832055
  C     -4.498341   11.520956    6.502456
  C     -4.852046   11.913649    7.949602
  N     -5.586558   11.063990    5.851107
  C     -5.480906   10.454559    4.629891
  S     -6.810556    9.815082    3.868210
  N     -4.301460   10.568330    3.943718
  C     -3.206530   11.465815    4.368688
  C     -3.088671   12.712189    3.452804
  C     -2.485879   12.699114    2.209663
  C     -2.543075   13.805163    1.327079
  C     -3.251108   15.016193    1.769484
  C     -3.765649   15.026833    3.090868
  O     -4.337201   16.152858    3.490950
  C     -3.738549   13.909937    3.879470
  H     -0.936034   13.099899   10.262428
  H     -2.526463   13.501402    9.829043
  H     -1.171352   14.812251    9.888374
  H     -1.182538   14.482976    7.584627
  H     -0.158344   13.125179    8.068174
  H     -5.873407   11.585440    8.178272
  H     -4.949234   12.988839    8.143793
  H     -4.131135   11.612637    8.719579
  H     -6.490506   11.094574    6.307077
  H     -4.331487   10.143791    3.024571
  H     -2.310382   10.856466    4.198976
  H     -1.982332   11.799596    1.868043
  H     -2.051861   13.782491    0.358787
  H     -3.411071   15.882215    1.134021
  H     -4.018031   16.293380    4.399307
  H     -4.130274   13.934143    4.892071

 Total Charge           Charge          ....    0
 Multiplicity           Mult            ....    1
 Number of Electrons    NEL             ....  154
 Basis Dimension        Dim             ....  828

ORBITAL ENERGIES
----------------

  NO   OCC          E(Eh)            E(eV)
   0   2.0000     -91.890782     -2500.4753
   1   2.0000     -20.607732      -560.7649
   2   2.0000     -20.588231      -560.2343
   3   2.0000     -20.549590      -559.1828
   4   2.0000     -15.641653      -425.6310
   5   2.0000     -15.609403      -424.7534
   6   2.0000     -11.393678      -310.0377
   7   2.0000     -11.386760      -309.8495
   8   2.0000     -11.349499      -308.8356
   9   2.0000     -11.303218      -307.5762
  10   2.0000     -11.298759      -307.4549
  11   2.0000     -11.292656      -307.2888
  12   2.0000     -11.269832      -306.6677
  13   2.0000     -11.257517      -306.3326
  14   2.0000     -11.257476      -306.3315
  15   2.0000     -11.257149      -306.3226
  16   2.0000     -11.242054      -305.9118
  17   2.0000     -11.234751      -305.7131
  18   2.0000     -11.233256      -305.6724
  19   2.0000     -11.231285      -305.6188
  20   2.0000      -8.895723      -242.0649
  21   2.0000      -6.577243      -178.9759
  22   2.0000      -6.575303      -178.9231
  23   2.0000      -6.574688      -178.9064
  24   2.0000      -1.469652       -39.9913
  25   2.0000      -1.424516       -38.7631
  26   2.0000      -1.370871       -37.3033
  27   2.0000      -1.358847       -36.9761
  28   2.0000      -1.249335       -33.9961
  29   2.0000      -1.149979       -31.2925
  30   2.0000      -1.120987       -30.5036
  31   2.0000      -1.044921       -28.4337
  32   2.0000      -1.034175       -28.1413
  33   2.0000      -1.009062       -27.4580
  34   2.0000      -1.003453       -27.3054
  35   2.0000      -0.985723       -26.8229
  36   2.0000      -0.926738       -25.2178
  37   2.0000      -0.896116       -24.3846
  38   2.0000      -0.858629       -23.3645
  39   2.0000      -0.844560       -22.9816
  40   2.0000      -0.828715       -22.5505
  41   2.0000      -0.812295       -22.1037
  42   2.0000      -0.773465       -21.0471
  43   2.0000      -0.746474       -20.3126
  44   2.0000      -0.736735       -20.0476
  45   2.0000      -0.703581       -19.1454
  46   2.0000      -0.692741       -18.8504
  47   2.0000      -0.685128       -18.6433
  48   2.0000      -0.679741       -18.4967
  49   2.0000      -0.662379       -18.0242
  50   2.0000      -0.653439       -17.7810
  51   2.0000      -0.649344       -17.6696
  52   2.0000      -0.635019       -17.2797
  53   2.0000      -0.624362       -16.9898
  54   2.0000      -0.607489       -16.5306
  55   2.0000      -0.602001       -16.3813
  56   2.0000      -0.594502       -16.1772
  57   2.0000      -0.589368       -16.0375
  58   2.0000      -0.571105       -15.5405
  59   2.0000      -0.570583       -15.5263
  60   2.0000      -0.559006       -15.2113
  61   2.0000      -0.555206       -15.1079
  62   2.0000      -0.533497       -14.5172
  63   2.0000      -0.521341       -14.1864
  64   2.0000      -0.515185       -14.0189
  65   2.0000      -0.504463       -13.7271
  66   2.0000      -0.499710       -13.5978
  67   2.0000      -0.499209       -13.5842
  68   2.0000      -0.477919       -13.0048
  69   2.0000      -0.463685       -12.6175
  70   2.0000      -0.459621       -12.5069
  71   2.0000      -0.455957       -12.4072
  72   2.0000      -0.354855        -9.6561
  73   2.0000      -0.335418        -9.1272
  74   2.0000      -0.329230        -8.9588
  75   2.0000      -0.322838        -8.7849
  76   2.0000      -0.315152        -8.5757
  77   0.0000       0.067370         1.8332
  78   0.0000       0.099967         2.7202
  79   0.0000       0.111303         3.0287
  80   0.0000       0.128361         3.4929
  81   0.0000       0.137460         3.7405

MULLIKEN ATOMIC CHARGES
-----------------------
   0 C :   -0.289324
   1 C :    0.052521
   2 O :   -0.320137
   3 C :    0.445544
   4 O :   -0.417809
   5 C :   -0.231407
   6 C :    0.144352
   7 C :   -0.308041
   8 N :   -0.096164
   9 C :    0.214880
  10 S :   -0.440785
  11 N :   -0.206850
  12 C :    0.049364
  13 C :    0.102824
  14 C :   -0.206483
  15 C :   -0.132951
  16 C :   -0.236900
  17 C :    0.278343
  18 O :   -0.354422
  19 C :   -0.276454
  20 H :    0.095278
  21 H :    0.092320
  22 H :    0.100772
  23 H :    0.067318
  24 H :    0.092990
  25 H :    0.103226
  26 H :    0.125514
  27 H :    0.140411
  28 H :    0.202051
  29 H :    0.199359
  30 H :    0.151041
  31 H :    0.143500
  32 H :    0.166876
  33 H :    0.169887
  34 H :    0.239460
  35 H :    0.139897
Sum of atomic charges:   -0.0000000

LOEWDIN ATOMIC CHARGES
----------------------
   0 C :    0.110586
   1 C :   -0.076407
   2 O :    0.341840
   3 C :   -0.416039
   4 O :    0.122899
   5 C :   -0.115705
   6 C :   -0.064930
   7 C :    0.128004
   8 N :    0.420245
   9 C :   -0.439491
  10 S :   -0.040319
  11 N :    0.400657
  12 C :   -0.058143
  13 C :   -0.016589
  14 C :    0.003534
  15 C :    0.065047
  16 C :    0.043988
  17 C :   -0.247957
  18 O :    0.415145
  19 C :    0.009541
  20 H :   -0.028562
  21 H :   -0.032229
  22 H :   -0.027885
  23 H :   -0.035635
  24 H :   -0.029093
  25 H :   -0.022752
  26 H :   -0.011269
  27 H :   -0.013265
  28 H :   -0.041750
  29 H :   -0.065126
  30 H :   -0.006270
  31 H :   -0.029781
  32 H :   -0.028952
  33 H :   -0.032718
  34 H :   -0.145278
  35 H :   -0.035343

  Mayer bond orders larger than 0.100000
B(  0-C ,  1-C ) :   0.9337 B(  0-C , 20-H ) :   0.9863 B(  0-C , 21-H ) :   0.9809
B(  0-C , 22-H ) :   0.9860 B(  1-C ,  2-O ) :   0.9414 B(  1-C , 23-H ) :   0.9823
B(  1-C , 24-H ) :   0.9819 B(  2-O ,  3-C ) :   1.1362 B(  3-C ,  4-O ) :   1.9958
B(  3-C ,  5-C ) :   1.0833 B(  5-C ,  6-C ) :   1.5772 B(  5-C , 12-C ) :   0.9774
B(  6-C ,  7-C ) :   0.9591 B(  6-C ,  8-N ) :   1.2092 B(  7-C , 25-H ) :   0.9965
B(  7-C , 26-H ) :   0.9570 B(  7-C , 27-H ) :   0.9647 B(  8-N ,  9-C ) :   1.1660
B(  8-N , 28-H ) :   0.9431 B(  9-C , 10-S ) :   1.5929 B(  9-C , 11-N ) :   1.3314
B( 11-N , 12-C ) :   0.9358 B( 11-N , 29-H ) :   0.9450 B( 12-C , 13-C ) :   0.9797
B( 12-C , 30-H ) :   0.9946 B( 13-C , 14-C ) :   1.3979 B( 13-C , 19-C ) :   1.2744
B( 14-C , 15-C ) :   1.3674 B( 14-C , 31-H ) :   0.9726 B( 15-C , 16-C ) :   1.4056
B( 15-C , 32-H ) :   0.9684 B( 16-C , 17-C ) :   1.3554 B( 16-C , 33-H ) :   0.9594
B( 17-C , 18-O ) :   1.0718 B( 17-C , 19-C ) :   1.4015 B( 18-O , 34-H ) :   0.9783
B( 19-C , 35-H ) :   0.9648

MP2 TOTAL ENERGY:    -1274.309878942 Eh
FINAL SINGLE POINT ENERGY     -1274.309878942047

DIPOLE MOMENT
-------------
                                X             Y             Z
Electronic contribution:     -7.62782      -8.07991     -14.05617
Nuclear contribution   :      8.34338       8.94827      16.01774
                        -----------------------------------------
Total Dipole Moment    :      0.71556       0.86836       1.96157
                        -----------------------------------------
Magnitude (a.u.)       :      2.26138
Magnitude (Debye)      :      5.74797

Rotational constants in cm-1:     0.010499     0.008900     0.005945
Rotational constants in MHz :   314.744957   266.817940   178.224304

                             ****ORCA TERMINATED NORMALLY****
TOTAL RUN TIME: 0 days 1 hours 45 minutes 12 seconds 774 msec
