                         Program Version 5.0.0 -  RELEASE  -
|  1> ! RI-MP2 cc-pVTZ cc-pVTZ/c TightSCF KeepDens NoKeepInts
|  2>
|  3> %pointcharges "srfp_output"
|  4>
|  5> *xyz  0  1
|  6>     C    -1.4905696   13.7970861    9.6224204
|  7>     C    -1.1760527   13.5300349    8.1278132
|  8>     O    -2.1551040   12.6856714    7.6646444
|  9>     C    -2.0428788   12.1929461    6.3853975
| 10>     O    -1.0585548   12.3791569    5.6950942
| 11>     C    -3.3049358   11.7032169    5.8320548
| 12>     C    -4.4983409   11.5209556    6.5024558
| 13>     C    -4.8520457   11.9136492    7.9496020
| 14>     N    -5.5865577   11.0639899    5.8511071
| 15>     C    -5.4809056   10.4545586    4.6298909
| 16>     S    -6.8105557    9.8150821    3.8682099
| 17>     N    -4.3014602   10.5683301    3.9437184
| 18>     C    -3.2065297   11.4658153    4.3686877
| 19>     C    -3.0886710   12.7121886    3.4528040
| 20>     C    -2.4858786   12.6991143    2.2096627
| 21>     C    -2.5430754   13.8051633    1.3270792
| 22>     C    -3.2511082   15.0161928    1.7694840
| 23>     C    -3.7656489   15.0268330    3.0908676
| 24>     O    -4.3372014   16.1528578    3.4909499
| 25>     C    -3.7385491   13.9099374    3.8794696
| 26>     H    -0.9360338   13.0998992   10.2624283
| 27>     H    -2.5264629   13.5014015    9.8290435
| 28>     H    -1.1713521   14.8122506    9.8883738
| 29>     H    -1.1825379   14.4829760    7.5846274
| 30>     H    -0.1583439   13.1251793    8.0681737
| 31>     H    -5.8734070   11.5854399    8.1782720
| 32>     H    -4.9492339   12.9888394    8.1437929
| 33>     H    -4.1311351   11.6126368    8.7195791
| 34>     H    -6.4905059   11.0945744    6.3070771
| 35>     H    -4.3314867   10.1437913    3.0245712
| 36>     H    -2.3103819   10.8564659    4.1989759
| 37>     H    -1.9823322   11.7995961    1.8680431
| 38>     H    -2.0518610   13.7824907    0.3587866
| 39>     H    -3.4110713   15.8822153    1.1340213
| 40>     H    -4.0180312   16.2933804    4.3993074
| 41>     H    -4.1302736   13.9341426    4.8920712
| 42> *
| 43>
| 44>                          ****END OF INPUT****

CARTESIAN COORDINATES (ANGSTROEM)
---------------------------------
  C     -1.490570   13.797086    9.622420
  C     -1.176053   13.530035    8.127813
  O     -2.155104   12.685671    7.664644
  C     -2.042879   12.192946    6.385397
  O     -1.058555   12.379157    5.695094
  C     -3.304936   11.703217    5.832055
  C     -4.498341   11.520956    6.502456
  C     -4.852046   11.913649    7.949602
  N     -5.586558   11.063990    5.851107
  C     -5.480906   10.454559    4.629891
  S     -6.810556    9.815082    3.868210
  N     -4.301460   10.568330    3.943718
  C     -3.206530   11.465815    4.368688
  C     -3.088671   12.712189    3.452804
  C     -2.485879   12.699114    2.209663
  C     -2.543075   13.805163    1.327079
  C     -3.251108   15.016193    1.769484
  C     -3.765649   15.026833    3.090868
  O     -4.337201   16.152858    3.490950
  C     -3.738549   13.909937    3.879470
  H     -0.936034   13.099899   10.262428
  H     -2.526463   13.501402    9.829043
  H     -1.171352   14.812251    9.888374
  H     -1.182538   14.482976    7.584627
  H     -0.158344   13.125179    8.068174
  H     -5.873407   11.585440    8.178272
  H     -4.949234   12.988839    8.143793
  H     -4.131135   11.612637    8.719579
  H     -6.490506   11.094574    6.307077
  H     -4.331487   10.143791    3.024571
  H     -2.310382   10.856466    4.198976
  H     -1.982332   11.799596    1.868043
  H     -2.051861   13.782491    0.358787
  H     -3.411071   15.882215    1.134021
  H     -4.018031   16.293380    4.399307
  H     -4.130274   13.934143    4.892071

 Total Charge           Charge          ....    0
 Multiplicity           Mult            ....    1
 Number of Electrons    NEL             ....  154
 Basis Dimension        Dim             ....  828

ORBITAL ENERGIES
----------------

  NO   OCC          E(Eh)            E(eV)
   0   2.0000     -90.264573     -2456.2239
   1   2.0000     -18.935196      -515.2529
   2   2.0000     -18.918095      -514.7875
   3   2.0000     -18.898464      -514.2534
   4   2.0000     -13.975979      -380.3057
   5   2.0000     -13.957376      -379.7995
   6   2.0000      -9.747081      -265.2316
   7   2.0000      -9.739994      -265.0387
   8   2.0000      -9.678541      -263.3665
   9   2.0000      -9.639239      -262.2970
  10   2.0000      -9.634600      -262.1708
  11   2.0000      -9.606427      -261.4042
  12   2.0000      -9.593127      -261.0423
  13   2.0000      -9.591880      -261.0083
  14   2.0000      -9.587458      -260.8880
  15   2.0000      -9.579040      -260.6589
  16   2.0000      -9.575878      -260.5729
  17   2.0000      -9.570783      -260.4343
  18   2.0000      -9.566170      -260.3087
  19   2.0000      -9.539067      -259.5712
  20   2.0000      -7.271399      -197.8648
  21   2.0000      -4.953421      -134.7895
  22   2.0000      -4.951423      -134.7351
  23   2.0000      -4.951028      -134.7243
  24   2.0000       0.196078         5.3355
  25   2.0000       0.243831         6.6350
  26   2.0000       0.285690         7.7740
  27   2.0000       0.302634         8.2351
  28   2.0000       0.411109        11.1868
  29   2.0000       0.511637        13.9223
  30   2.0000       0.542724        14.7683
  31   2.0000       0.629467        17.1287
  32   2.0000       0.636140        17.3102
  33   2.0000       0.655965        17.8497
  34   2.0000       0.667092        18.1525
  35   2.0000       0.672040        18.2871
  36   2.0000       0.739487        20.1225
  37   2.0000       0.778394        21.1812
  38   2.0000       0.803135        21.8544
  39   2.0000       0.821885        22.3646
  40   2.0000       0.843834        22.9619
  41   2.0000       0.854264        23.2457
  42   2.0000       0.895302        24.3624
  43   2.0000       0.916016        24.9261
  44   2.0000       0.929885        25.3035
  45   2.0000       0.962094        26.1799
  46   2.0000       0.968959        26.3667
  47   2.0000       0.983209        26.7545
  48   2.0000       0.985478        26.8162
  49   2.0000       1.002494        27.2793
  50   2.0000       1.012384        27.5484
  51   2.0000       1.014779        27.6135
  52   2.0000       1.032215        28.0880
  53   2.0000       1.038792        28.2670
  54   2.0000       1.064185        28.9579
  55   2.0000       1.069513        29.1029
  56   2.0000       1.078979        29.3605
  57   2.0000       1.087619        29.5956
  58   2.0000       1.101254        29.9667
  59   2.0000       1.105798        30.0903
  60   2.0000       1.116818        30.3902
  61   2.0000       1.119079        30.4517
  62   2.0000       1.131719        30.7956
  63   2.0000       1.137291        30.9473
  64   2.0000       1.154586        31.4179
  65   2.0000       1.157728        31.5034
  66   2.0000       1.166258        31.7355
  67   2.0000       1.175224        31.9795
  68   2.0000       1.184983        32.2450
  69   2.0000       1.198537        32.6139
  70   2.0000       1.202185        32.7131
  71   2.0000       1.219292        33.1786
  72   2.0000       1.286101        34.9966
  73   2.0000       1.292977        35.1837
  74   2.0000       1.321198        35.9516
  75   2.0000       1.332118        36.2488
  76   2.0000       1.339563        36.4514
  77   0.0000       1.723769        46.9061
  78   0.0000       1.767439        48.0945
  79   0.0000       1.801887        49.0318
  80   0.0000       1.807725        49.1907
  81   0.0000       1.815152        49.3928

MULLIKEN ATOMIC CHARGES
-----------------------
   0 C :   -0.295451
   1 C :    0.043991
   2 O :   -0.299564
   3 C :    0.517240
   4 O :   -0.574708
   5 C :   -0.220277
   6 C :    0.165457
   7 C :   -0.298023
   8 N :   -0.112579
   9 C :    0.382878
  10 S :   -0.754697
  11 N :   -0.230370
  12 C :    0.089158
  13 C :   -0.008131
  14 C :   -0.201790
  15 C :   -0.179919
  16 C :   -0.261270
  17 C :    0.285736
  18 O :   -0.449042
  19 C :   -0.276022
  20 H :    0.100935
  21 H :    0.102880
  22 H :    0.109554
  23 H :    0.080378
  24 H :    0.093936
  25 H :    0.122762
  26 H :    0.139122
  27 H :    0.144589
  28 H :    0.265182
  29 H :    0.261946
  30 H :    0.165951
  31 H :    0.180959
  32 H :    0.203866
  33 H :    0.189105
  34 H :    0.334413
  35 H :    0.181806
Sum of atomic charges:   -0.0000000

LOEWDIN ATOMIC CHARGES
----------------------
   0 C :    0.116318
   1 C :   -0.074815
   2 O :    0.357859
   3 C :   -0.385799
   4 O :    0.024604
   5 C :   -0.109933
   6 C :   -0.038187
   7 C :    0.140544
   8 N :    0.441064
   9 C :   -0.395719
  10 S :   -0.242198
  11 N :    0.427886
  12 C :   -0.052365
  13 C :   -0.039352
  14 C :   -0.001939
  15 C :    0.053419
  16 C :    0.034967
  17 C :   -0.255460
  18 O :    0.379650
  19 C :    0.016566
  20 H :   -0.025793
  21 H :   -0.028406
  22 H :   -0.023711
  23 H :   -0.032031
  24 H :   -0.029326
  25 H :   -0.011166
  26 H :   -0.002930
  27 H :   -0.008964
  28 H :   -0.010097
  29 H :   -0.036306
  30 H :   -0.000947
  31 H :   -0.018377
  32 H :   -0.019823
  33 H :   -0.027297
  34 H :   -0.101297
  35 H :   -0.020641

  Mayer bond orders larger than 0.100000
B(  0-C ,  1-C ) :   0.9428 B(  0-C , 20-H ) :   0.9848 B(  0-C , 21-H ) :   0.9789
B(  0-C , 22-H ) :   0.9834 B(  1-C ,  2-O ) :   0.9251 B(  1-C , 23-H ) :   0.9794
B(  1-C , 24-H ) :   0.9791 B(  2-O ,  3-C ) :   1.1838 B(  3-C ,  4-O ) :   1.9056
B(  3-C ,  5-C ) :   1.1196 B(  5-C ,  6-C ) :   1.5568 B(  5-C , 12-C ) :   0.9751
B(  6-C ,  7-C ) :   0.9621 B(  6-C ,  8-N ) :   1.1982 B(  7-C , 25-H ) :   0.9918
B(  7-C , 26-H ) :   0.9510 B(  7-C , 27-H ) :   0.9603 B(  8-N ,  9-C ) :   1.2598
B(  8-N , 28-H ) :   0.9147 B(  9-C , 10-S ) :   1.2122 B(  9-C , 11-N ) :   1.4430
B( 11-N , 12-C ) :   0.9169 B( 11-N , 29-H ) :   0.9188 B( 12-C , 13-C ) :   0.9652
B( 12-C , 30-H ) :   0.9960 B( 13-C , 14-C ) :   1.3989 B( 13-C , 19-C ) :   1.2607
B( 14-C , 15-C ) :   1.3540 B( 14-C , 31-H ) :   0.9609 B( 15-C , 16-C ) :   1.3940
B( 15-C , 32-H ) :   0.9574 B( 16-C , 17-C ) :   1.3365 B( 16-C , 33-H ) :   0.9525
B( 17-C , 18-O ) :   1.0970 B( 17-C , 19-C ) :   1.4067 B( 18-O , 34-H ) :   0.9107
B( 19-C , 35-H ) :   0.9550

MP2 TOTAL ENERGY:    -1274.448568075 Eh
FINAL SINGLE POINT ENERGY     -1274.448568075078

DIPOLE MOMENT
-------------
                                X             Y             Z
Electronic contribution:     -7.05397      -7.56759     -12.64737
Nuclear contribution   :      8.34338       8.94827      16.01774
                        -----------------------------------------
Total Dipole Moment    :      1.28941       1.38068       3.37038
                        -----------------------------------------
Magnitude (a.u.)       :      3.86372
Magnitude (Debye)      :      9.82078

Rotational constants in cm-1:     0.010499     0.008900     0.005945
Rotational constants in MHz :   314.744957   266.817940   178.224304

                             ****ORCA TERMINATED NORMALLY****
TOTAL RUN TIME: 0 days 1 hours 47 minutes 52 seconds 17 msec
