                         Program Version 5.0.0 -  RELEASE  -
|  1> ! RI-MP2 cc-pVTZ cc-pVTZ/c TightSCF KeepDens NoKeepInts
|  2>
|  3> %pointcharges "srfp_output"
|  4>
|  5> *xyz  0  1
|  6>     C   -16.1334495    3.4069024   15.3352924
|  7>     C   -15.1041789    2.6806349   14.4672079
|  8>     O   -15.2906896    1.3148093   14.4745910
|  9>     C   -16.0623791    0.6309528   13.5717872
| 10>     O   -16.5040633    1.2461380   12.5903159
| 11>     C   -16.1088096   -0.8391962   13.7561808
| 12>     C   -16.6255339   -1.6529303   12.7871077
| 13>     C   -16.9435325   -1.3442321   11.3515751
| 14>     N   -16.8370903   -3.0039633   13.0311151
| 15>     C   -16.5529865   -3.5668391   14.1919174
| 16>     S   -16.9498813   -5.1816012   14.4566171
| 17>     N   -16.1621899   -2.7134378   15.2514807
| 18>     C   -15.6633805   -1.3265741   15.0584079
| 19>     C   -14.1813754   -1.2017150   15.4248032
| 20>     C   -13.8406332   -0.8474729   16.7769358
| 21>     C   -12.5512843   -0.6521179   17.2345431
| 22>     C   -11.5043896   -0.7228350   16.2655082
| 23>     C   -11.7959969   -0.8930895   14.9163581
| 24>     O   -10.8352300   -1.0702039   13.9809330
| 25>     C   -13.1274549   -1.2374122   14.5247712
| 26>     H   -17.1076279    3.1012872   14.9343321
| 27>     H   -15.9714905    4.4917701   15.3306945
| 28>     H   -16.0110950    3.1049215   16.3826779
| 29>     H   -15.0414985    3.1087085   13.4592328
| 30>     H   -14.1591605    2.7556984   15.0190258
| 31>     H   -16.0339313   -1.1770665   10.7617743
| 32>     H   -17.5529175   -0.4322151   11.3435206
| 33>     H   -17.5394748   -2.1006281   10.8263062
| 34>     H   -17.2515159   -3.6092546   12.3326591
| 35>     H   -15.9970866   -3.2038043   16.1222550
| 36>     H   -16.1751585   -0.6614103   15.7646870
| 37>     H   -14.7125274   -0.7288095   17.4134228
| 38>     H   -12.3517921   -0.3793335   18.2666223
| 39>     H   -10.4737333   -0.5135077   16.5363091
| 40>     H    -9.9839918   -0.7502865   14.3270195
| 41>     H   -13.3609220   -1.5811689   13.5214166
| 42> *
| 43>
| 44>                          ****END OF INPUT****

CARTESIAN COORDINATES (ANGSTROEM)
---------------------------------
  C    -16.133450    3.406902   15.335292
  C    -15.104179    2.680635   14.467208
  O    -15.290690    1.314809   14.474591
  C    -16.062379    0.630953   13.571787
  O    -16.504063    1.246138   12.590316
  C    -16.108810   -0.839196   13.756181
  C    -16.625534   -1.652930   12.787108
  C    -16.943532   -1.344232   11.351575
  N    -16.837090   -3.003963   13.031115
  C    -16.552986   -3.566839   14.191917
  S    -16.949881   -5.181601   14.456617
  N    -16.162190   -2.713438   15.251481
  C    -15.663381   -1.326574   15.058408
  C    -14.181375   -1.201715   15.424803
  C    -13.840633   -0.847473   16.776936
  C    -12.551284   -0.652118   17.234543
  C    -11.504390   -0.722835   16.265508
  C    -11.795997   -0.893089   14.916358
  O    -10.835230   -1.070204   13.980933
  C    -13.127455   -1.237412   14.524771
  H    -17.107628    3.101287   14.934332
  H    -15.971490    4.491770   15.330694
  H    -16.011095    3.104922   16.382678
  H    -15.041498    3.108709   13.459233
  H    -14.159160    2.755698   15.019026
  H    -16.033931   -1.177066   10.761774
  H    -17.552917   -0.432215   11.343521
  H    -17.539475   -2.100628   10.826306
  H    -17.251516   -3.609255   12.332659
  H    -15.997087   -3.203804   16.122255
  H    -16.175158   -0.661410   15.764687
  H    -14.712527   -0.728809   17.413423
  H    -12.351792   -0.379333   18.266622
  H    -10.473733   -0.513508   16.536309
  H     -9.983992   -0.750286   14.327019
  H    -13.360922   -1.581169   13.521417

 Total Charge           Charge          ....    0
 Multiplicity           Mult            ....    1
 Number of Electrons    NEL             ....  154
 Basis Dimension        Dim             ....  828

ORBITAL ENERGIES
----------------

  NO   OCC          E(Eh)            E(eV)
   0   2.0000     -92.780412     -2524.6834
   1   2.0000     -21.483038      -584.5832
   2   2.0000     -21.470361      -584.2382
   3   2.0000     -21.434133      -583.2524
   4   2.0000     -16.508581      -449.2213
   5   2.0000     -16.483728      -448.5450
   6   2.0000     -12.291763      -334.4759
   7   2.0000     -12.272214      -333.9439
   8   2.0000     -12.220155      -332.5273
   9   2.0000     -12.190336      -331.7159
  10   2.0000     -12.181162      -331.4663
  11   2.0000     -12.158163      -330.8404
  12   2.0000     -12.137434      -330.2764
  13   2.0000     -12.134121      -330.1862
  14   2.0000     -12.127220      -329.9984
  15   2.0000     -12.117979      -329.7470
  16   2.0000     -12.117219      -329.7263
  17   2.0000     -12.116967      -329.7194
  18   2.0000     -12.110960      -329.5560
  19   2.0000     -12.089633      -328.9756
  20   2.0000      -9.785743      -266.2836
  21   2.0000      -7.467521      -203.2016
  22   2.0000      -7.465623      -203.1499
  23   2.0000      -7.465156      -203.1372
  24   2.0000      -2.345436       -63.8226
  25   2.0000      -2.291277       -62.3488
  26   2.0000      -2.243252       -61.0420
  27   2.0000      -2.229585       -60.6701
  28   2.0000      -2.108203       -57.3671
  29   2.0000      -2.032439       -55.3055
  30   2.0000      -2.008138       -54.6442
  31   2.0000      -1.923283       -52.3352
  32   2.0000      -1.913541       -52.0701
  33   2.0000      -1.887103       -51.3507
  34   2.0000      -1.877615       -51.0925
  35   2.0000      -1.860087       -50.6155
  36   2.0000      -1.800630       -48.9976
  37   2.0000      -1.778385       -48.3923
  38   2.0000      -1.727273       -47.0015
  39   2.0000      -1.714239       -46.6468
  40   2.0000      -1.707813       -46.4719
  41   2.0000      -1.694031       -46.0969
  42   2.0000      -1.637709       -44.5643
  43   2.0000      -1.608961       -43.7821
  44   2.0000      -1.607790       -43.7502
  45   2.0000      -1.575473       -42.8708
  46   2.0000      -1.565247       -42.5925
  47   2.0000      -1.560091       -42.4522
  48   2.0000      -1.552709       -42.2513
  49   2.0000      -1.535515       -41.7835
  50   2.0000      -1.524699       -41.4892
  51   2.0000      -1.519497       -41.3476
  52   2.0000      -1.513766       -41.1917
  53   2.0000      -1.493090       -40.6291
  54   2.0000      -1.488425       -40.5021
  55   2.0000      -1.479336       -40.2548
  56   2.0000      -1.473158       -40.0867
  57   2.0000      -1.450599       -39.4728
  58   2.0000      -1.446751       -39.3681
  59   2.0000      -1.441458       -39.2241
  60   2.0000      -1.431799       -38.9612
  61   2.0000      -1.426726       -38.8232
  62   2.0000      -1.415600       -38.5204
  63   2.0000      -1.404445       -38.2169
  64   2.0000      -1.400777       -38.1171
  65   2.0000      -1.393568       -37.9209
  66   2.0000      -1.372473       -37.3469
  67   2.0000      -1.364641       -37.1338
  68   2.0000      -1.358243       -36.9597
  69   2.0000      -1.344786       -36.5935
  70   2.0000      -1.327017       -36.1100
  71   2.0000      -1.321427       -35.9579
  72   2.0000      -1.237678       -33.6789
  73   2.0000      -1.227310       -33.3968
  74   2.0000      -1.220169       -33.2025
  75   2.0000      -1.208629       -32.8885
  76   2.0000      -1.195266       -32.5248
  77   0.0000      -0.816411       -22.2157
  78   0.0000      -0.769045       -20.9268
  79   0.0000      -0.751514       -20.4497
  80   0.0000      -0.733854       -19.9692
  81   0.0000      -0.726038       -19.7565

MULLIKEN ATOMIC CHARGES
-----------------------
   0 C :   -0.268107
   1 C :    0.015942
   2 O :   -0.309390
   3 C :    0.518934
   4 O :   -0.581566
   5 C :   -0.252003
   6 C :    0.182416
   7 C :   -0.279250
   8 N :   -0.085515
   9 C :    0.291568
  10 S :   -0.623113
  11 N :   -0.272582
  12 C :    0.092926
  13 C :    0.037279
  14 C :   -0.179500
  15 C :   -0.186226
  16 C :   -0.277212
  17 C :    0.244252
  18 O :   -0.428057
  19 C :   -0.269693
  20 H :    0.090932
  21 H :    0.111815
  22 H :    0.096587
  23 H :    0.107217
  24 H :    0.103581
  25 H :    0.134774
  26 H :    0.126461
  27 H :    0.126074
  28 H :    0.264658
  29 H :    0.248003
  30 H :    0.160998
  31 H :    0.172157
  32 H :    0.205634
  33 H :    0.177963
  34 H :    0.321025
  35 H :    0.181016
Sum of atomic charges:    0.0000000

LOEWDIN ATOMIC CHARGES
----------------------
   0 C :    0.115006
   1 C :   -0.073016
   2 O :    0.364674
   3 C :   -0.361383
   4 O :   -0.016309
   5 C :   -0.109503
   6 C :   -0.018707
   7 C :    0.138467
   8 N :    0.436593
   9 C :   -0.401575
  10 S :   -0.182363
  11 N :    0.396054
  12 C :   -0.071199
  13 C :   -0.031689
  14 C :    0.022578
  15 C :    0.036545
  16 C :    0.001882
  17 C :   -0.218616
  18 O :    0.360194
  19 C :    0.012500
  20 H :   -0.030902
  21 H :   -0.017984
  22 H :   -0.025078
  23 H :   -0.031504
  24 H :   -0.023059
  25 H :   -0.001685
  26 H :   -0.012853
  27 H :   -0.006426
  28 H :   -0.011159
  29 H :   -0.049503
  30 H :    0.004676
  31 H :   -0.022641
  32 H :   -0.012395
  33 H :   -0.023136
  34 H :   -0.108796
  35 H :   -0.027686

  Mayer bond orders larger than 0.100000
B(  0-C ,  1-C ) :   0.9541 B(  0-C , 20-H ) :   0.9800 B(  0-C , 21-H ) :   0.9741
B(  0-C , 22-H ) :   0.9781 B(  1-C ,  2-O ) :   0.8967 B(  1-C , 23-H ) :   0.9758
B(  1-C , 24-H ) :   0.9860 B(  2-O ,  3-C ) :   1.1966 B(  3-C ,  4-O ) :   1.8423
B(  3-C ,  5-C ) :   1.1222 B(  5-C ,  6-C ) :   1.5953 B(  5-C , 12-C ) :   0.9549
B(  6-C ,  7-C ) :   0.9502 B(  6-C ,  8-N ) :   1.1847 B(  7-C , 25-H ) :   0.9597
B(  7-C , 26-H ) :   0.9610 B(  7-C , 27-H ) :   0.9856 B(  8-N ,  9-C ) :   1.3029
B(  8-N , 28-H ) :   0.9107 B(  9-C , 10-S ) :   1.3894 B(  9-C , 11-N ) :   1.3252
B( 11-N , 12-C ) :   0.9557 B( 11-N , 29-H ) :   0.9274 B( 12-C , 13-C ) :   0.9612
B( 12-C , 30-H ) :   0.9906 B( 13-C , 14-C ) :   1.2704 B( 13-C , 19-C ) :   1.4300
B( 14-C , 15-C ) :   1.4624 B( 14-C , 31-H ) :   0.9690 B( 15-C , 16-C ) :   1.2645
B( 15-C , 32-H ) :   0.9529 B( 16-C , 17-C ) :   1.4230 B( 16-C , 33-H ) :   0.9668
B( 17-C , 18-O ) :   1.1230 B( 17-C , 19-C ) :   1.3052 B( 18-O , 34-H ) :   0.9132
B( 19-C , 35-H ) :   0.9484

MP2 TOTAL ENERGY:    -1274.412455493 Eh
FINAL SINGLE POINT ENERGY     -1274.412455493346

DIPOLE MOMENT
-------------
                                X             Y             Z
Electronic contribution:     -0.20411     -15.32221      -0.48739
Nuclear contribution   :      1.39514      17.51455       1.22725
                        -----------------------------------------
Total Dipole Moment    :      1.19102       2.19234       0.73986
                        -----------------------------------------
Magnitude (a.u.)       :      2.60236
Magnitude (Debye)      :      6.61468

Rotational constants in cm-1:     0.011327     0.008290     0.005985
Rotational constants in MHz :   339.578574   248.515457   179.424731

                             ****ORCA TERMINATED NORMALLY****
TOTAL RUN TIME: 0 days 1 hours 47 minutes 45 seconds 627 msec
