                         Program Version 5.0.0 -  RELEASE  -
|  1> ! RI-MP2 cc-pVTZ cc-pVTZ/c TightSCF KeepDens NoKeepInts
|  2>
|  3> *xyz  0  1
|  4>     C   -16.1334495    3.4069024   15.3352924
|  5>     C   -15.1041789    2.6806349   14.4672079
|  6>     O   -15.2906896    1.3148093   14.4745910
|  7>     C   -16.0623791    0.6309528   13.5717872
|  8>     O   -16.5040633    1.2461380   12.5903159
|  9>     C   -16.1088096   -0.8391962   13.7561808
| 10>     C   -16.6255339   -1.6529303   12.7871077
| 11>     C   -16.9435325   -1.3442321   11.3515751
| 12>     N   -16.8370903   -3.0039633   13.0311151
| 13>     C   -16.5529865   -3.5668391   14.1919174
| 14>     S   -16.9498813   -5.1816012   14.4566171
| 15>     N   -16.1621899   -2.7134378   15.2514807
| 16>     C   -15.6633805   -1.3265741   15.0584079
| 17>     C   -14.1813754   -1.2017150   15.4248032
| 18>     C   -13.8406332   -0.8474729   16.7769358
| 19>     C   -12.5512843   -0.6521179   17.2345431
| 20>     C   -11.5043896   -0.7228350   16.2655082
| 21>     C   -11.7959969   -0.8930895   14.9163581
| 22>     O   -10.8352300   -1.0702039   13.9809330
| 23>     C   -13.1274549   -1.2374122   14.5247712
| 24>     H   -17.1076279    3.1012872   14.9343321
| 25>     H   -15.9714905    4.4917701   15.3306945
| 26>     H   -16.0110950    3.1049215   16.3826779
| 27>     H   -15.0414985    3.1087085   13.4592328
| 28>     H   -14.1591605    2.7556984   15.0190258
| 29>     H   -16.0339313   -1.1770665   10.7617743
| 30>     H   -17.5529175   -0.4322151   11.3435206
| 31>     H   -17.5394748   -2.1006281   10.8263062
| 32>     H   -17.2515159   -3.6092546   12.3326591
| 33>     H   -15.9970866   -3.2038043   16.1222550
| 34>     H   -16.1751585   -0.6614103   15.7646870
| 35>     H   -14.7125274   -0.7288095   17.4134228
| 36>     H   -12.3517921   -0.3793335   18.2666223
| 37>     H   -10.4737333   -0.5135077   16.5363091
| 38>     H    -9.9839918   -0.7502865   14.3270195
| 39>     H   -13.3609220   -1.5811689   13.5214166
| 40> *
| 41>
| 42>                          ****END OF INPUT****

CARTESIAN COORDINATES (ANGSTROEM)
---------------------------------
  C    -16.133450    3.406902   15.335292
  C    -15.104179    2.680635   14.467208
  O    -15.290690    1.314809   14.474591
  C    -16.062379    0.630953   13.571787
  O    -16.504063    1.246138   12.590316
  C    -16.108810   -0.839196   13.756181
  C    -16.625534   -1.652930   12.787108
  C    -16.943532   -1.344232   11.351575
  N    -16.837090   -3.003963   13.031115
  C    -16.552986   -3.566839   14.191917
  S    -16.949881   -5.181601   14.456617
  N    -16.162190   -2.713438   15.251481
  C    -15.663381   -1.326574   15.058408
  C    -14.181375   -1.201715   15.424803
  C    -13.840633   -0.847473   16.776936
  C    -12.551284   -0.652118   17.234543
  C    -11.504390   -0.722835   16.265508
  C    -11.795997   -0.893089   14.916358
  O    -10.835230   -1.070204   13.980933
  C    -13.127455   -1.237412   14.524771
  H    -17.107628    3.101287   14.934332
  H    -15.971490    4.491770   15.330694
  H    -16.011095    3.104922   16.382678
  H    -15.041498    3.108709   13.459233
  H    -14.159160    2.755698   15.019026
  H    -16.033931   -1.177066   10.761774
  H    -17.552917   -0.432215   11.343521
  H    -17.539475   -2.100628   10.826306
  H    -17.251516   -3.609255   12.332659
  H    -15.997087   -3.203804   16.122255
  H    -16.175158   -0.661410   15.764687
  H    -14.712527   -0.728809   17.413423
  H    -12.351792   -0.379333   18.266622
  H    -10.473733   -0.513508   16.536309
  H     -9.983992   -0.750286   14.327019
  H    -13.360922   -1.581169   13.521417

 Total Charge           Charge          ....    0
 Multiplicity           Mult            ....    1
 Number of Electrons    NEL             ....  154
 Basis Dimension        Dim             ....  828

ORBITAL ENERGIES
----------------

  NO   OCC          E(Eh)            E(eV)
   0   2.0000     -91.891081     -2500.4834
   1   2.0000     -20.599818      -560.5495
   2   2.0000     -20.597388      -560.4834
   3   2.0000     -20.538982      -558.8941
   4   2.0000     -15.636969      -425.5036
   5   2.0000     -15.609206      -424.7481
   6   2.0000     -11.398180      -310.1602
   7   2.0000     -11.386916      -309.8537
   8   2.0000     -11.344624      -308.7029
   9   2.0000     -11.315043      -307.8980
  10   2.0000     -11.309123      -307.7369
  11   2.0000     -11.286563      -307.1230
  12   2.0000     -11.262381      -306.4650
  13   2.0000     -11.258713      -306.3652
  14   2.0000     -11.255807      -306.2861
  15   2.0000     -11.253169      -306.2143
  16   2.0000     -11.244382      -305.9752
  17   2.0000     -11.241142      -305.8870
  18   2.0000     -11.238804      -305.8234
  19   2.0000     -11.224876      -305.4444
  20   2.0000      -8.895104      -242.0481
  21   2.0000      -6.576547      -178.9569
  22   2.0000      -6.574669      -178.9058
  23   2.0000      -6.574091      -178.8901
  24   2.0000      -1.459179       -39.7063
  25   2.0000      -1.416286       -38.5391
  26   2.0000      -1.356624       -36.9156
  27   2.0000      -1.347938       -36.6792
  28   2.0000      -1.235794       -33.6277
  29   2.0000      -1.156495       -31.4698
  30   2.0000      -1.132033       -30.8042
  31   2.0000      -1.050906       -28.5966
  32   2.0000      -1.039418       -28.2840
  33   2.0000      -1.012584       -27.5538
  34   2.0000      -1.006477       -27.3876
  35   2.0000      -0.978073       -26.6147
  36   2.0000      -0.928095       -25.2547
  37   2.0000      -0.903515       -24.5859
  38   2.0000      -0.851386       -23.1674
  39   2.0000      -0.841257       -22.8918
  40   2.0000      -0.834501       -22.7079
  41   2.0000      -0.818723       -22.2786
  42   2.0000      -0.759290       -20.6613
  43   2.0000      -0.735194       -20.0056
  44   2.0000      -0.730681       -19.8828
  45   2.0000      -0.697227       -18.9725
  46   2.0000      -0.687413       -18.7055
  47   2.0000      -0.680760       -18.5244
  48   2.0000      -0.673987       -18.3401
  49   2.0000      -0.661858       -18.0101
  50   2.0000      -0.650659       -17.7053
  51   2.0000      -0.646357       -17.5883
  52   2.0000      -0.637616       -17.3504
  53   2.0000      -0.616821       -16.7846
  54   2.0000      -0.613558       -16.6958
  55   2.0000      -0.604954       -16.4616
  56   2.0000      -0.599725       -16.3194
  57   2.0000      -0.578342       -15.7375
  58   2.0000      -0.573576       -15.6078
  59   2.0000      -0.564798       -15.3689
  60   2.0000      -0.563365       -15.3299
  61   2.0000      -0.551104       -14.9963
  62   2.0000      -0.542621       -14.7655
  63   2.0000      -0.527395       -14.3512
  64   2.0000      -0.523849       -14.2547
  65   2.0000      -0.507937       -13.8217
  66   2.0000      -0.499149       -13.5825
  67   2.0000      -0.490747       -13.3539
  68   2.0000      -0.480333       -13.0705
  69   2.0000      -0.459391       -12.5007
  70   2.0000      -0.448384       -12.2012
  71   2.0000      -0.438773       -11.9396
  72   2.0000      -0.359014        -9.7693
  73   2.0000      -0.348066        -9.4714
  74   2.0000      -0.327625        -8.9151
  75   2.0000      -0.320471        -8.7205
  76   2.0000      -0.315346        -8.5810
  77   0.0000       0.065082         1.7710
  78   0.0000       0.106000         2.8844
  79   0.0000       0.117349         3.1932
  80   0.0000       0.127030         3.4567
  81   0.0000       0.133219         3.6251

MULLIKEN ATOMIC CHARGES
-----------------------
   0 C :   -0.278986
   1 C :    0.028718
   2 O :   -0.318905
   3 C :    0.472108
   4 O :   -0.459419
   5 C :   -0.243800
   6 C :    0.164426
   7 C :   -0.281337
   8 N :   -0.078192
   9 C :    0.215319
  10 S :   -0.452069
  11 N :   -0.256849
  12 C :    0.081479
  13 C :    0.067947
  14 C :   -0.187836
  15 C :   -0.153789
  16 C :   -0.243504
  17 C :    0.275112
  18 O :   -0.349840
  19 C :   -0.223249
  20 H :    0.098097
  21 H :    0.097369
  22 H :    0.089225
  23 H :    0.106933
  24 H :    0.096398
  25 H :    0.126341
  26 H :    0.143694
  27 H :    0.096111
  28 H :    0.205720
  29 H :    0.194790
  30 H :    0.135664
  31 H :    0.138981
  32 H :    0.169748
  33 H :    0.128268
  34 H :    0.238395
  35 H :    0.156931
Sum of atomic charges:   -0.0000000

LOEWDIN ATOMIC CHARGES
----------------------
   0 C :    0.109177
   1 C :   -0.073033
   2 O :    0.357514
   3 C :   -0.380257
   4 O :    0.064896
   5 C :   -0.108735
   6 C :   -0.034675
   7 C :    0.131357
   8 N :    0.419757
   9 C :   -0.425904
  10 S :   -0.067267
  11 N :    0.380844
  12 C :   -0.077371
  13 C :   -0.025685
  14 C :    0.013052
  15 C :    0.037853
  16 C :    0.000416
  17 C :   -0.192902
  18 O :    0.394983
  19 C :    0.037324
  20 H :   -0.029082
  21 H :   -0.024523
  22 H :   -0.029077
  23 H :   -0.029988
  24 H :   -0.026246
  25 H :   -0.004717
  26 H :   -0.007108
  27 H :   -0.020784
  28 H :   -0.040049
  29 H :   -0.074273
  30 H :   -0.004193
  31 H :   -0.035105
  32 H :   -0.021348
  33 H :   -0.037614
  34 H :   -0.148945
  35 H :   -0.028293

  Mayer bond orders larger than 0.100000
B(  0-C ,  1-C ) :   0.9519 B(  0-C , 20-H ) :   0.9800 B(  0-C , 21-H ) :   0.9770
B(  0-C , 22-H ) :   0.9801 B(  1-C ,  2-O ) :   0.9142 B(  1-C , 23-H ) :   0.9771
B(  1-C , 24-H ) :   0.9856 B(  2-O ,  3-C ) :   1.1631 B(  3-C ,  4-O ) :   1.9207
B(  3-C ,  5-C ) :   1.0886 B(  5-C ,  6-C ) :   1.6246 B(  5-C , 12-C ) :   0.9616
B(  6-C ,  7-C ) :   0.9574 B(  6-C ,  8-N ) :   1.1733 B(  7-C , 25-H ) :   0.9609
B(  7-C , 26-H ) :   0.9578 B(  7-C , 27-H ) :   0.9905 B(  8-N ,  9-C ) :   1.2482
B(  8-N , 28-H ) :   0.9353 B(  9-C , 10-S ) :   1.5583 B(  9-C , 11-N ) :   1.2634
B( 11-N , 12-C ) :   0.9629 B( 11-N , 29-H ) :   0.9528 B( 12-C , 13-C ) :   0.9645
B( 12-C , 30-H ) :   0.9925 B( 13-C , 14-C ) :   1.2631 B( 13-C , 19-C ) :   1.4459
B( 14-C , 15-C ) :   1.4863 B( 14-C , 31-H ) :   0.9774 B( 15-C , 16-C ) :   1.2828
B( 15-C , 32-H ) :   0.9640 B( 16-C , 17-C ) :   1.4259 B( 16-C , 33-H ) :   0.9804
B( 17-C , 18-O ) :   1.1002 B( 17-C , 19-C ) :   1.3019 B( 18-O , 34-H ) :   0.9779
B( 19-C , 35-H ) :   0.9633

MP2 TOTAL ENERGY:    -1274.311258710 Eh
FINAL SINGLE POINT ENERGY     -1274.311258709739

DIPOLE MOMENT
-------------
                                X             Y             Z
Electronic contribution:     -0.41701     -15.81955      -0.98036
Nuclear contribution   :      1.39514      17.51455       1.22725
                        -----------------------------------------
Total Dipole Moment    :      0.97813       1.69501       0.24689
                        -----------------------------------------
Magnitude (a.u.)       :      1.97249
Magnitude (Debye)      :      5.01368

Rotational constants in cm-1:     0.011327     0.008290     0.005985
Rotational constants in MHz :   339.578574   248.515457   179.424731

                             ****ORCA TERMINATED NORMALLY****
TOTAL RUN TIME: 0 days 1 hours 54 minutes 33 seconds 554 msec
