                         Program Version 5.0.0 -  RELEASE  -
|  1> ! RI-MP2 cc-pVTZ cc-pVTZ/c TightSCF KeepDens NoKeepInts
|  2>
|  3> *xyz  0  1
|  4>     C    -7.8880613    3.2802334   13.5326726
|  5>     C    -6.4860037    3.7860806   13.0496780
|  6>     O    -6.6830757    5.2265080   12.8930853
|  7>     C    -5.6542926    5.9885105   12.7297755
|  8>     O    -4.5095199    5.5385192   12.6210632
|  9>     C    -6.0302449    7.3632226   12.3177521
| 10>     C    -7.3119371    7.8357823   12.0688308
| 11>     C    -8.5912625    7.0005341   12.0702472
| 12>     N    -7.4667606    9.1415804   11.6516877
| 13>     C    -6.4860107    9.8765283   11.1030486
| 14>     S    -6.7518420   11.4300942   10.5700075
| 15>     N    -5.2450446    9.3967619   11.1860433
| 16>     C    -4.8426322    8.2690501   12.0984892
| 17>     C    -4.1883862    8.8238177   13.3931951
| 18>     C    -2.8002554    9.0160374   13.3023008
| 19>     C    -2.0823940    9.5367320   14.4043897
| 20>     C    -2.8507482    9.8734887   15.5875309
| 21>     C    -4.2424278    9.7256868   15.6128994
| 22>     O    -4.9721962   10.0788349   16.7195484
| 23>     C    -4.8905404    9.2201338   14.5169450
| 24>     H    -8.2065727    3.8478127   14.4156192
| 25>     H    -7.9249825    2.1875137   13.6209341
| 26>     H    -8.6611344    3.5366186   12.7979549
| 27>     H    -5.6455741    3.6926576   13.7483482
| 28>     H    -6.2646878    3.3617228   12.0626981
| 29>     H    -9.4631253    7.6254956   11.8411694
| 30>     H    -8.8182069    6.6573010   13.0870456
| 31>     H    -8.5793239    6.1400257   11.3901206
| 32>     H    -8.3909584    9.5304621   11.5081749
| 33>     H    -4.4555603    9.8732721   10.7669740
| 34>     H    -4.1502863    7.6820485   11.4826355
| 35>     H    -2.2424499    8.6877322   12.4302545
| 36>     H    -1.0291148    9.7929674   14.3384939
| 37>     H    -2.4388477   10.3432799   16.4758046
| 38>     H    -5.9105037    9.9457313   16.4991138
| 39>     H    -5.9723601    9.1249848   14.5209898
| 40> *
| 41>
| 42>                          ****END OF INPUT****

CARTESIAN COORDINATES (ANGSTROEM)
---------------------------------
  C     -7.888061    3.280233   13.532673
  C     -6.486004    3.786081   13.049678
  O     -6.683076    5.226508   12.893085
  C     -5.654293    5.988510   12.729776
  O     -4.509520    5.538519   12.621063
  C     -6.030245    7.363223   12.317752
  C     -7.311937    7.835782   12.068831
  C     -8.591262    7.000534   12.070247
  N     -7.466761    9.141580   11.651688
  C     -6.486011    9.876528   11.103049
  S     -6.751842   11.430094   10.570007
  N     -5.245045    9.396762   11.186043
  C     -4.842632    8.269050   12.098489
  C     -4.188386    8.823818   13.393195
  C     -2.800255    9.016037   13.302301
  C     -2.082394    9.536732   14.404390
  C     -2.850748    9.873489   15.587531
  C     -4.242428    9.725687   15.612899
  O     -4.972196   10.078835   16.719548
  C     -4.890540    9.220134   14.516945
  H     -8.206573    3.847813   14.415619
  H     -7.924982    2.187514   13.620934
  H     -8.661134    3.536619   12.797955
  H     -5.645574    3.692658   13.748348
  H     -6.264688    3.361723   12.062698
  H     -9.463125    7.625496   11.841169
  H     -8.818207    6.657301   13.087046
  H     -8.579324    6.140026   11.390121
  H     -8.390958    9.530462   11.508175
  H     -4.455560    9.873272   10.766974
  H     -4.150286    7.682048   11.482635
  H     -2.242450    8.687732   12.430255
  H     -1.029115    9.792967   14.338494
  H     -2.438848   10.343280   16.475805
  H     -5.910504    9.945731   16.499114
  H     -5.972360    9.124985   14.520990

 Total Charge           Charge          ....    0
 Multiplicity           Mult            ....    1
 Number of Electrons    NEL             ....  154
 Basis Dimension        Dim             ....  828

ORBITAL ENERGIES
----------------

  NO   OCC          E(Eh)            E(eV)
   0   2.0000     -91.881473     -2500.2220
   1   2.0000     -20.610434      -560.8384
   2   2.0000     -20.592299      -560.3449
   3   2.0000     -20.535613      -558.8024
   4   2.0000     -15.632576      -425.3840
   5   2.0000     -15.604653      -424.6242
   6   2.0000     -11.386934      -309.8542
   7   2.0000     -11.375832      -309.5521
   8   2.0000     -11.343008      -308.6589
   9   2.0000     -11.312696      -307.8341
  10   2.0000     -11.305442      -307.6367
  11   2.0000     -11.303190      -307.5754
  12   2.0000     -11.265593      -306.5524
  13   2.0000     -11.258880      -306.3697
  14   2.0000     -11.257641      -306.3360
  15   2.0000     -11.256949      -306.3171
  16   2.0000     -11.246334      -306.0283
  17   2.0000     -11.239905      -305.8534
  18   2.0000     -11.236365      -305.7570
  19   2.0000     -11.235789      -305.7414
  20   2.0000      -8.886580      -241.8161
  21   2.0000      -6.568169      -178.7290
  22   2.0000      -6.566112      -178.6730
  23   2.0000      -6.565567      -178.6582
  24   2.0000      -1.481629       -40.3172
  25   2.0000      -1.405452       -38.2443
  26   2.0000      -1.356445       -36.9108
  27   2.0000      -1.348128       -36.6844
  28   2.0000      -1.241721       -33.7889
  29   2.0000      -1.155867       -31.4527
  30   2.0000      -1.120920       -30.5018
  31   2.0000      -1.052199       -28.6318
  32   2.0000      -1.037011       -28.2185
  33   2.0000      -1.015998       -27.6467
  34   2.0000      -1.001151       -27.2427
  35   2.0000      -0.978511       -26.6266
  36   2.0000      -0.922150       -25.0930
  37   2.0000      -0.900501       -24.5039
  38   2.0000      -0.857304       -23.3284
  39   2.0000      -0.844278       -22.9740
  40   2.0000      -0.828039       -22.5321
  41   2.0000      -0.811966       -22.0947
  42   2.0000      -0.770755       -20.9733
  43   2.0000      -0.743938       -20.2436
  44   2.0000      -0.732936       -19.9442
  45   2.0000      -0.700394       -19.0587
  46   2.0000      -0.694071       -18.8866
  47   2.0000      -0.686394       -18.6777
  48   2.0000      -0.672720       -18.3056
  49   2.0000      -0.661349       -17.9962
  50   2.0000      -0.656975       -17.8772
  51   2.0000      -0.641515       -17.4565
  52   2.0000      -0.623591       -16.9688
  53   2.0000      -0.613249       -16.6874
  54   2.0000      -0.601118       -16.3572
  55   2.0000      -0.599324       -16.3084
  56   2.0000      -0.593172       -16.1410
  57   2.0000      -0.588588       -16.0163
  58   2.0000      -0.575487       -15.6598
  59   2.0000      -0.574966       -15.6456
  60   2.0000      -0.565681       -15.3930
  61   2.0000      -0.552871       -15.0444
  62   2.0000      -0.534513       -14.5448
  63   2.0000      -0.521790       -14.1986
  64   2.0000      -0.519139       -14.1265
  65   2.0000      -0.517308       -14.0767
  66   2.0000      -0.503806       -13.7093
  67   2.0000      -0.494701       -13.4615
  68   2.0000      -0.480733       -13.0814
  69   2.0000      -0.468283       -12.7426
  70   2.0000      -0.456167       -12.4129
  71   2.0000      -0.453718       -12.3463
  72   2.0000      -0.354402        -9.6438
  73   2.0000      -0.342960        -9.3324
  74   2.0000      -0.324867        -8.8401
  75   2.0000      -0.318419        -8.6646
  76   2.0000      -0.310232        -8.4418
  77   0.0000       0.072168         1.9638
  78   0.0000       0.107976         2.9382
  79   0.0000       0.110354         3.0029
  80   0.0000       0.130151         3.5416
  81   0.0000       0.137406         3.7390

MULLIKEN ATOMIC CHARGES
-----------------------
   0 C :   -0.281500
   1 C :    0.021641
   2 O :   -0.293981
   3 C :    0.423755
   4 O :   -0.464850
   5 C :   -0.226998
   6 C :    0.133362
   7 C :   -0.295515
   8 N :   -0.099667
   9 C :    0.195058
  10 S :   -0.464643
  11 N :   -0.186949
  12 C :    0.027606
  13 C :    0.093268
  14 C :   -0.193410
  15 C :   -0.124995
  16 C :   -0.234060
  17 C :    0.308600
  18 O :   -0.365859
  19 C :   -0.278709
  20 H :    0.103409
  21 H :    0.112583
  22 H :    0.093624
  23 H :    0.127930
  24 H :    0.105488
  25 H :    0.105227
  26 H :    0.124712
  27 H :    0.135183
  28 H :    0.193870
  29 H :    0.197004
  30 H :    0.162290
  31 H :    0.151178
  32 H :    0.169024
  33 H :    0.157463
  34 H :    0.242618
  35 H :    0.126243
Sum of atomic charges:    0.0000000

LOEWDIN ATOMIC CHARGES
----------------------
   0 C :    0.108986
   1 C :    0.034085
   2 O :    0.368165
   3 C :   -0.488595
   4 O :    0.067291
   5 C :   -0.096593
   6 C :   -0.060580
   7 C :    0.121041
   8 N :    0.412992
   9 C :   -0.490896
  10 S :   -0.063402
  11 N :    0.405728
  12 C :   -0.026872
  13 C :   -0.027986
  14 C :    0.014989
  15 C :    0.063600
  16 C :    0.033119
  17 C :   -0.188395
  18 O :    0.377474
  19 C :    0.000325
  20 H :   -0.028416
  21 H :   -0.026428
  22 H :   -0.027622
  23 H :   -0.027055
  24 H :   -0.028227
  25 H :   -0.022988
  26 H :   -0.013000
  27 H :   -0.010440
  28 H :   -0.047504
  29 H :   -0.059996
  30 H :   -0.004865
  31 H :   -0.029022
  32 H :   -0.025755
  33 H :   -0.030313
  34 H :   -0.152150
  35 H :   -0.030697

  Mayer bond orders larger than 0.100000
B(  0-C ,  1-C ) :   0.9696 B(  0-C , 20-H ) :   0.9764 B(  0-C , 21-H ) :   0.9793
B(  0-C , 22-H ) :   0.9757 B(  1-C ,  2-O ) :   0.8640 B(  1-C , 23-H ) :   0.9747
B(  1-C , 24-H ) :   0.9768 B(  2-O ,  3-C ) :   1.2676 B(  3-C ,  4-O ) :   1.9399
B(  3-C ,  5-C ) :   1.0608 B(  5-C ,  6-C ) :   1.6376 B(  5-C , 12-C ) :   0.9769
B(  6-C ,  7-C ) :   0.9563 B(  6-C ,  8-N ) :   1.1556 B(  7-C , 25-H ) :   0.9929
B(  7-C , 26-H ) :   0.9673 B(  7-C , 27-H ) :   0.9631 B(  8-N ,  9-C ) :   1.1891
B(  8-N , 28-H ) :   0.9462 B(  9-C , 10-S ) :   1.5557 B(  9-C , 11-N ) :   1.3557
B( 11-N , 12-C ) :   0.9280 B( 11-N , 29-H ) :   0.9538 B( 12-C , 13-C ) :   0.9793
B( 12-C , 30-H ) :   0.9880 B( 13-C , 14-C ) :   1.3510 B( 13-C , 19-C ) :   1.3519
B( 14-C , 15-C ) :   1.4175 B( 14-C , 31-H ) :   0.9688 B( 15-C , 16-C ) :   1.3767
B( 15-C , 32-H ) :   0.9662 B( 16-C , 17-C ) :   1.3718 B( 16-C , 33-H ) :   0.9679
B( 17-C , 18-O ) :   1.1035 B( 17-C , 19-C ) :   1.3476 B( 18-O , 34-H ) :   0.9780
B( 19-C , 35-H ) :   0.9729

MP2 TOTAL ENERGY:    -1274.319726459 Eh
FINAL SINGLE POINT ENERGY     -1274.319726459212

DIPOLE MOMENT
-------------
                                X             Y             Z
Electronic contribution:      6.29688      15.56215      -3.59646
Nuclear contribution   :     -7.58612     -17.68956       4.03191
                        -----------------------------------------
Total Dipole Moment    :     -1.28924      -2.12741       0.43545
                        -----------------------------------------
Magnitude (a.u.)       :      2.52540
Magnitude (Debye)      :      6.41905

Rotational constants in cm-1:     0.011038     0.008079     0.005752
Rotational constants in MHz :   330.902661   242.207484   172.437565

                             ****ORCA TERMINATED NORMALLY****
TOTAL RUN TIME: 0 days 1 hours 56 minutes 38 seconds 211 msec
