                         Program Version 5.0.0 -  RELEASE  -
|  1> ! RI-MP2 cc-pVTZ cc-pVTZ/c TightSCF KeepDens NoKeepInts
|  2>
|  3> %pointcharges "srfp_output"
|  4>
|  5> *xyz  0  1
|  6>     C    -7.8880613    3.2802334   13.5326726
|  7>     C    -6.4860037    3.7860806   13.0496780
|  8>     O    -6.6830757    5.2265080   12.8930853
|  9>     C    -5.6542926    5.9885105   12.7297755
| 10>     O    -4.5095199    5.5385192   12.6210632
| 11>     C    -6.0302449    7.3632226   12.3177521
| 12>     C    -7.3119371    7.8357823   12.0688308
| 13>     C    -8.5912625    7.0005341   12.0702472
| 14>     N    -7.4667606    9.1415804   11.6516877
| 15>     C    -6.4860107    9.8765283   11.1030486
| 16>     S    -6.7518420   11.4300942   10.5700075
| 17>     N    -5.2450446    9.3967619   11.1860433
| 18>     C    -4.8426322    8.2690501   12.0984892
| 19>     C    -4.1883862    8.8238177   13.3931951
| 20>     C    -2.8002554    9.0160374   13.3023008
| 21>     C    -2.0823940    9.5367320   14.4043897
| 22>     C    -2.8507482    9.8734887   15.5875309
| 23>     C    -4.2424278    9.7256868   15.6128994
| 24>     O    -4.9721962   10.0788349   16.7195484
| 25>     C    -4.8905404    9.2201338   14.5169450
| 26>     H    -8.2065727    3.8478127   14.4156192
| 27>     H    -7.9249825    2.1875137   13.6209341
| 28>     H    -8.6611344    3.5366186   12.7979549
| 29>     H    -5.6455741    3.6926576   13.7483482
| 30>     H    -6.2646878    3.3617228   12.0626981
| 31>     H    -9.4631253    7.6254956   11.8411694
| 32>     H    -8.8182069    6.6573010   13.0870456
| 33>     H    -8.5793239    6.1400257   11.3901206
| 34>     H    -8.3909584    9.5304621   11.5081749
| 35>     H    -4.4555603    9.8732721   10.7669740
| 36>     H    -4.1502863    7.6820485   11.4826355
| 37>     H    -2.2424499    8.6877322   12.4302545
| 38>     H    -1.0291148    9.7929674   14.3384939
| 39>     H    -2.4388477   10.3432799   16.4758046
| 40>     H    -5.9105037    9.9457313   16.4991138
| 41>     H    -5.9723601    9.1249848   14.5209898
| 42> *
| 43>
| 44>                          ****END OF INPUT****

CARTESIAN COORDINATES (ANGSTROEM)
---------------------------------
  C     -7.888061    3.280233   13.532673
  C     -6.486004    3.786081   13.049678
  O     -6.683076    5.226508   12.893085
  C     -5.654293    5.988510   12.729776
  O     -4.509520    5.538519   12.621063
  C     -6.030245    7.363223   12.317752
  C     -7.311937    7.835782   12.068831
  C     -8.591262    7.000534   12.070247
  N     -7.466761    9.141580   11.651688
  C     -6.486011    9.876528   11.103049
  S     -6.751842   11.430094   10.570007
  N     -5.245045    9.396762   11.186043
  C     -4.842632    8.269050   12.098489
  C     -4.188386    8.823818   13.393195
  C     -2.800255    9.016037   13.302301
  C     -2.082394    9.536732   14.404390
  C     -2.850748    9.873489   15.587531
  C     -4.242428    9.725687   15.612899
  O     -4.972196   10.078835   16.719548
  C     -4.890540    9.220134   14.516945
  H     -8.206573    3.847813   14.415619
  H     -7.924982    2.187514   13.620934
  H     -8.661134    3.536619   12.797955
  H     -5.645574    3.692658   13.748348
  H     -6.264688    3.361723   12.062698
  H     -9.463125    7.625496   11.841169
  H     -8.818207    6.657301   13.087046
  H     -8.579324    6.140026   11.390121
  H     -8.390958    9.530462   11.508175
  H     -4.455560    9.873272   10.766974
  H     -4.150286    7.682048   11.482635
  H     -2.242450    8.687732   12.430255
  H     -1.029115    9.792967   14.338494
  H     -2.438848   10.343280   16.475805
  H     -5.910504    9.945731   16.499114
  H     -5.972360    9.124985   14.520990

 Total Charge           Charge          ....    0
 Multiplicity           Mult            ....    1
 Number of Electrons    NEL             ....  154
 Basis Dimension        Dim             ....  828

ORBITAL ENERGIES
----------------

  NO   OCC          E(Eh)            E(eV)
   0   2.0000     -91.791667     -2497.7782
   1   2.0000     -20.474667      -557.1440
   2   2.0000     -20.456748      -556.6564
   3   2.0000     -20.421666      -555.7018
   4   2.0000     -15.500317      -421.7851
   5   2.0000     -15.483135      -421.3175
   6   2.0000     -11.268659      -306.6358
   7   2.0000     -11.268164      -306.6223
   8   2.0000     -11.206454      -304.9431
   9   2.0000     -11.174795      -304.0816
  10   2.0000     -11.172599      -304.0219
  11   2.0000     -11.163806      -303.7826
  12   2.0000     -11.125833      -302.7493
  13   2.0000     -11.125648      -302.7443
  14   2.0000     -11.122454      -302.6574
  15   2.0000     -11.111369      -302.3557
  16   2.0000     -11.105899      -302.2069
  17   2.0000     -11.105706      -302.2016
  18   2.0000     -11.103185      -302.1330
  19   2.0000     -11.088444      -301.7319
  20   2.0000      -8.798514      -239.4197
  21   2.0000      -6.480568      -176.3452
  22   2.0000      -6.478497      -176.2889
  23   2.0000      -6.478154      -176.2795
  24   2.0000      -1.350434       -36.7472
  25   2.0000      -1.271301       -34.5939
  26   2.0000      -1.232554       -33.5395
  27   2.0000      -1.228589       -33.4316
  28   2.0000      -1.113106       -30.2892
  29   2.0000      -1.027367       -27.9561
  30   2.0000      -0.989846       -26.9351
  31   2.0000      -0.909578       -24.7509
  32   2.0000      -0.900633       -24.5075
  33   2.0000      -0.884798       -24.0766
  34   2.0000      -0.864178       -23.5155
  35   2.0000      -0.859760       -23.3953
  36   2.0000      -0.790023       -21.4976
  37   2.0000      -0.757279       -20.6066
  38   2.0000      -0.729914       -19.8620
  39   2.0000      -0.711908       -19.3720
  40   2.0000      -0.693108       -18.8604
  41   2.0000      -0.678612       -18.4660
  42   2.0000      -0.637745       -17.3539
  43   2.0000      -0.614687       -16.7265
  44   2.0000      -0.599464       -16.3122
  45   2.0000      -0.564070       -15.3491
  46   2.0000      -0.561279       -15.2732
  47   2.0000      -0.559113       -15.2142
  48   2.0000      -0.543526       -14.7901
  49   2.0000      -0.531740       -14.4694
  50   2.0000      -0.526622       -14.3301
  51   2.0000      -0.507732       -13.8161
  52   2.0000      -0.492797       -13.4097
  53   2.0000      -0.475021       -12.9260
  54   2.0000      -0.464075       -12.6281
  55   2.0000      -0.462898       -12.5961
  56   2.0000      -0.458021       -12.4634
  57   2.0000      -0.445852       -12.1322
  58   2.0000      -0.437188       -11.8965
  59   2.0000      -0.431876       -11.7520
  60   2.0000      -0.422564       -11.4986
  61   2.0000      -0.416993       -11.3470
  62   2.0000      -0.398962       -10.8563
  63   2.0000      -0.391839       -10.6625
  64   2.0000      -0.387230       -10.5371
  65   2.0000      -0.375525       -10.2185
  66   2.0000      -0.367944       -10.0123
  67   2.0000      -0.364555        -9.9200
  68   2.0000      -0.354963        -9.6590
  69   2.0000      -0.344232        -9.3670
  70   2.0000      -0.332869        -9.0578
  71   2.0000      -0.329242        -8.9591
  72   2.0000      -0.244821        -6.6619
  73   2.0000      -0.235356        -6.4044
  74   2.0000      -0.217722        -5.9245
  75   2.0000      -0.204294        -5.5591
  76   2.0000      -0.192790        -5.2461
  77   0.0000       0.196707         5.3527
  78   0.0000       0.239282         6.5112
  79   0.0000       0.266624         7.2552
  80   0.0000       0.277539         7.5522
  81   0.0000       0.281377         7.6567

MULLIKEN ATOMIC CHARGES
-----------------------
   0 C :   -0.282110
   1 C :    0.022446
   2 O :   -0.272437
   3 C :    0.491515
   4 O :   -0.621703
   5 C :   -0.215220
   6 C :    0.162655
   7 C :   -0.292833
   8 N :   -0.119098
   9 C :    0.381172
  10 S :   -0.792640
  11 N :   -0.213548
  12 C :    0.062320
  13 C :    0.008547
  14 C :   -0.190519
  15 C :   -0.178013
  16 C :   -0.284381
  17 C :    0.304450
  18 O :   -0.454103
  19 C :   -0.261867
  20 H :    0.110383
  21 H :    0.119264
  22 H :    0.102247
  23 H :    0.122108
  24 H :    0.115172
  25 H :    0.125651
  26 H :    0.135925
  27 H :    0.141406
  28 H :    0.261880
  29 H :    0.261183
  30 H :    0.170969
  31 H :    0.183917
  32 H :    0.210287
  33 H :    0.174782
  34 H :    0.326855
  35 H :    0.183338
Sum of atomic charges:    0.0000000

LOEWDIN ATOMIC CHARGES
----------------------
   0 C :    0.115480
   1 C :    0.037557
   2 O :    0.385753
   3 C :   -0.460717
   4 O :   -0.032371
   5 C :   -0.094208
   6 C :   -0.031308
   7 C :    0.133670
   8 N :    0.436033
   9 C :   -0.445721
  10 S :   -0.266765
  11 N :    0.430620
  12 C :   -0.021303
  13 C :   -0.046773
  14 C :    0.013361
  15 C :    0.048075
  16 C :    0.015958
  17 C :   -0.199350
  18 O :    0.344260
  19 C :    0.012843
  20 H :   -0.025325
  21 H :   -0.022726
  22 H :   -0.023591
  23 H :   -0.029072
  24 H :   -0.024831
  25 H :   -0.011281
  26 H :   -0.006152
  27 H :   -0.005850
  28 H :   -0.013082
  29 H :   -0.029501
  30 H :   -0.001022
  31 H :   -0.016879
  32 H :   -0.015949
  33 H :   -0.026294
  34 H :   -0.111112
  35 H :   -0.012426

  Mayer bond orders larger than 0.100000
B(  0-C ,  1-C ) :   0.9745 B(  0-C , 20-H ) :   0.9755 B(  0-C , 21-H ) :   0.9774
B(  0-C , 22-H ) :   0.9741 B(  1-C ,  2-O ) :   0.8470 B(  1-C , 23-H ) :   0.9737
B(  1-C , 24-H ) :   0.9743 B(  2-O ,  3-C ) :   1.3216 B(  3-C ,  4-O ) :   1.8484
B(  3-C ,  5-C ) :   1.0919 B(  5-C ,  6-C ) :   1.6153 B(  5-C , 12-C ) :   0.9746
B(  6-C ,  7-C ) :   0.9584 B(  6-C ,  8-N ) :   1.1502 B(  7-C , 25-H ) :   0.9898
B(  7-C , 26-H ) :   0.9603 B(  7-C , 27-H ) :   0.9592 B(  8-N ,  9-C ) :   1.2947
B(  8-N , 28-H ) :   0.9190 B(  9-C , 10-S ) :   1.1401 B(  9-C , 11-N ) :   1.4606
B( 11-N , 12-C ) :   0.9127 B( 11-N , 29-H ) :   0.9213 B( 12-C , 13-C ) :   0.9739
B( 12-C , 30-H ) :   0.9899 B( 13-C , 14-C ) :   1.3410 B( 13-C , 19-C ) :   1.3116
B( 14-C , 15-C ) :   1.3967 B( 14-C , 31-H ) :   0.9621 B( 15-C , 16-C ) :   1.3678
B( 15-C , 32-H ) :   0.9535 B( 16-C , 17-C ) :   1.3412 B( 16-C , 33-H ) :   0.9649
B( 17-C , 18-O ) :   1.1044 B( 17-C , 19-C ) :   1.3770 B( 18-O , 34-H ) :   0.9126
B( 19-C , 35-H ) :   0.9599

MP2 TOTAL ENERGY:    -1274.468228767 Eh
FINAL SINGLE POINT ENERGY     -1274.468228767192

DIPOLE MOMENT
-------------
                                X             Y             Z
Electronic contribution:      5.34112      14.41727      -3.37188
Nuclear contribution   :     -7.58612     -17.68956       4.03191
                        -----------------------------------------
Total Dipole Moment    :     -2.24500      -3.27229       0.66003
                        -----------------------------------------
Magnitude (a.u.)       :      4.02287
Magnitude (Debye)      :     10.22533

Rotational constants in cm-1:     0.011038     0.008079     0.005752
Rotational constants in MHz :   330.902661   242.207484   172.437565

                             ****ORCA TERMINATED NORMALLY****
TOTAL RUN TIME: 0 days 1 hours 43 minutes 59 seconds 787 msec
