                         Program Version 5.0.0 -  RELEASE  -
|  1> ! RI-MP2 cc-pVTZ cc-pVTZ/c TightSCF KeepDens NoKeepInts
|  2>
|  3> *xyz  0  1
|  4>     C     8.3410829    1.0177748   -2.1151158
|  5>     C     7.2503124   -0.0501990   -2.2870626
|  6>     O     6.6603325   -0.3753954   -1.0298035
|  7>     C     5.6123925   -1.3025024   -0.9198336
|  8>     O     5.2244526   -1.8839948   -1.9163807
|  9>     C     5.0951331   -1.5611942    0.4308204
| 10>     C     5.5435764   -0.9017543    1.5374015
| 11>     C     6.5676245    0.2258941    1.7215111
| 12>     N     4.8968368   -1.1306343    2.7140816
| 13>     C     4.2610080   -2.3033070    2.9812829
| 14>     S     3.5124294   -2.7580409    4.4320174
| 15>     N     3.9675896   -3.0722783    1.8618720
| 16>     C     4.1002672   -2.7027628    0.4871291
| 17>     C     2.8045235   -2.4680536   -0.2890556
| 18>     C     2.0379628   -1.2551174   -0.1564276
| 19>     C     0.7915237   -1.0809734   -0.8225179
| 20>     C     0.2641944   -2.1790176   -1.5293290
| 21>     C     1.0025115   -3.3800774   -1.6095425
| 22>     O     0.4016355   -4.4313958   -2.2888894
| 23>     C     2.1739888   -3.5727062   -0.9524298
| 24>     H     9.0432711    0.6488819   -1.3574619
| 25>     H     7.8544848    1.9719506   -1.8785453
| 26>     H     8.8518392    1.1210822   -3.0803338
| 27>     H     6.6001582    0.4674732   -3.0029577
| 28>     H     7.6185582   -0.9867242   -2.7235316
| 29>     H     6.5823564    0.6884199    2.7160155
| 30>     H     6.3076339    1.0206948    1.0116615
| 31>     H     7.5663669   -0.1367665    1.4491512
| 32>     H     5.0362997   -0.3812512    3.3811210
| 33>     H     3.3835973   -3.8905618    1.9856925
| 34>     H     4.5837724   -3.4753880   -0.1231681
| 35>     H     2.5393966   -0.5295413    0.4772123
| 36>     H     0.2756540   -0.1273967   -0.7595418
| 37>     H    -0.6422600   -2.0250541   -2.1072837
| 38>     H    -0.4854714   -4.0829919   -2.4848108
| 39>     H     2.6410552   -4.5426470   -1.0954674
| 40> *
| 41>
| 42>                          ****END OF INPUT****

CARTESIAN COORDINATES (ANGSTROEM)
---------------------------------
  C      8.341083    1.017775   -2.115116
  C      7.250312   -0.050199   -2.287063
  O      6.660332   -0.375395   -1.029804
  C      5.612392   -1.302502   -0.919834
  O      5.224453   -1.883995   -1.916381
  C      5.095133   -1.561194    0.430820
  C      5.543576   -0.901754    1.537401
  C      6.567624    0.225894    1.721511
  N      4.896837   -1.130634    2.714082
  C      4.261008   -2.303307    2.981283
  S      3.512429   -2.758041    4.432017
  N      3.967590   -3.072278    1.861872
  C      4.100267   -2.702763    0.487129
  C      2.804524   -2.468054   -0.289056
  C      2.037963   -1.255117   -0.156428
  C      0.791524   -1.080973   -0.822518
  C      0.264194   -2.179018   -1.529329
  C      1.002511   -3.380077   -1.609543
  O      0.401635   -4.431396   -2.288889
  C      2.173989   -3.572706   -0.952430
  H      9.043271    0.648882   -1.357462
  H      7.854485    1.971951   -1.878545
  H      8.851839    1.121082   -3.080334
  H      6.600158    0.467473   -3.002958
  H      7.618558   -0.986724   -2.723532
  H      6.582356    0.688420    2.716016
  H      6.307634    1.020695    1.011661
  H      7.566367   -0.136767    1.449151
  H      5.036300   -0.381251    3.381121
  H      3.383597   -3.890562    1.985693
  H      4.583772   -3.475388   -0.123168
  H      2.539397   -0.529541    0.477212
  H      0.275654   -0.127397   -0.759542
  H     -0.642260   -2.025054   -2.107284
  H     -0.485471   -4.082992   -2.484811
  H      2.641055   -4.542647   -1.095467

 Total Charge           Charge          ....    0
 Multiplicity           Mult            ....    1
 Number of Electrons    NEL             ....  154
 Basis Dimension        Dim             ....  828

ORBITAL ENERGIES
----------------

  NO   OCC          E(Eh)            E(eV)
   0   2.0000     -91.894341     -2500.5722
   1   2.0000     -20.596224      -560.4518
   2   2.0000     -20.585527      -560.1607
   3   2.0000     -20.543827      -559.0260
   4   2.0000     -15.638085      -425.5339
   5   2.0000     -15.608290      -424.7232
   6   2.0000     -11.397960      -310.1543
   7   2.0000     -11.391351      -309.9744
   8   2.0000     -11.340726      -308.5969
   9   2.0000     -11.303349      -307.5798
  10   2.0000     -11.302369      -307.5531
  11   2.0000     -11.292619      -307.2878
  12   2.0000     -11.267650      -306.6083
  13   2.0000     -11.263702      -306.5009
  14   2.0000     -11.261034      -306.4283
  15   2.0000     -11.256349      -306.3008
  16   2.0000     -11.242357      -305.9201
  17   2.0000     -11.240516      -305.8700
  18   2.0000     -11.234794      -305.7143
  19   2.0000     -11.233457      -305.6779
  20   2.0000      -8.897729      -242.1195
  21   2.0000      -6.579100      -179.0264
  22   2.0000      -6.577241      -178.9758
  23   2.0000      -6.576631      -178.9592
  24   2.0000      -1.443056       -39.2676
  25   2.0000      -1.395996       -37.9870
  26   2.0000      -1.358382       -36.9635
  27   2.0000      -1.352016       -36.7902
  28   2.0000      -1.251199       -34.0468
  29   2.0000      -1.149011       -31.2662
  30   2.0000      -1.122151       -30.5353
  31   2.0000      -1.044558       -28.4239
  32   2.0000      -1.036262       -28.1981
  33   2.0000      -1.016939       -27.6723
  34   2.0000      -1.001198       -27.2440
  35   2.0000      -0.983648       -26.7664
  36   2.0000      -0.924771       -25.1643
  37   2.0000      -0.885089       -24.0845
  38   2.0000      -0.862598       -23.4725
  39   2.0000      -0.839551       -22.8453
  40   2.0000      -0.823580       -22.4108
  41   2.0000      -0.811150       -22.0725
  42   2.0000      -0.754033       -20.5183
  43   2.0000      -0.745247       -20.2792
  44   2.0000      -0.720378       -19.6025
  45   2.0000      -0.701862       -19.0986
  46   2.0000      -0.682591       -18.5742
  47   2.0000      -0.681151       -18.5351
  48   2.0000      -0.677955       -18.4481
  49   2.0000      -0.658646       -17.9227
  50   2.0000      -0.649088       -17.6626
  51   2.0000      -0.643788       -17.5184
  52   2.0000      -0.629995       -17.1430
  53   2.0000      -0.620396       -16.8818
  54   2.0000      -0.600042       -16.3280
  55   2.0000      -0.596521       -16.2322
  56   2.0000      -0.590708       -16.0740
  57   2.0000      -0.585234       -15.9250
  58   2.0000      -0.570748       -15.5308
  59   2.0000      -0.568726       -15.4758
  60   2.0000      -0.561515       -15.2796
  61   2.0000      -0.553700       -15.0669
  62   2.0000      -0.541109       -14.7243
  63   2.0000      -0.523817       -14.2538
  64   2.0000      -0.516321       -14.0498
  65   2.0000      -0.509777       -13.8717
  66   2.0000      -0.497601       -13.5404
  67   2.0000      -0.490760       -13.3543
  68   2.0000      -0.477550       -12.9948
  69   2.0000      -0.461084       -12.5467
  70   2.0000      -0.452638       -12.3169
  71   2.0000      -0.449428       -12.2296
  72   2.0000      -0.355771        -9.6810
  73   2.0000      -0.343651        -9.3512
  74   2.0000      -0.328343        -8.9347
  75   2.0000      -0.321674        -8.7532
  76   2.0000      -0.311561        -8.4780
  77   0.0000       0.068872         1.8741
  78   0.0000       0.107497         2.9251
  79   0.0000       0.112903         3.0723
  80   0.0000       0.129497         3.5238
  81   0.0000       0.133202         3.6246

MULLIKEN ATOMIC CHARGES
-----------------------
   0 C :   -0.265706
   1 C :    0.049359
   2 O :   -0.363391
   3 C :    0.431640
   4 O :   -0.420461
   5 C :   -0.208743
   6 C :    0.162458
   7 C :   -0.279578
   8 N :   -0.109304
   9 C :    0.198444
  10 S :   -0.430527
  11 N :   -0.185493
  12 C :    0.037174
  13 C :    0.083080
  14 C :   -0.209533
  15 C :   -0.142966
  16 C :   -0.262774
  17 C :    0.328397
  18 O :   -0.377411
  19 C :   -0.240100
  20 H :    0.089365
  21 H :    0.094287
  22 H :    0.101776
  23 H :    0.081775
  24 H :    0.091492
  25 H :    0.105529
  26 H :    0.125397
  27 H :    0.133778
  28 H :    0.201108
  29 H :    0.191177
  30 H :    0.144719
  31 H :    0.151602
  32 H :    0.166249
  33 H :    0.128424
  34 H :    0.241950
  35 H :    0.156807
Sum of atomic charges:   -0.0000000

LOEWDIN ATOMIC CHARGES
----------------------
   0 C :    0.111976
   1 C :   -0.036294
   2 O :    0.276357
   3 C :   -0.394470
   4 O :    0.114910
   5 C :   -0.101500
   6 C :   -0.066264
   7 C :    0.133552
   8 N :    0.414481
   9 C :   -0.401714
  10 S :   -0.070232
  11 N :    0.395008
  12 C :   -0.087299
  13 C :   -0.001347
  14 C :    0.027038
  15 C :    0.045159
  16 C :    0.006257
  17 C :   -0.176700
  18 O :    0.360380
  19 C :    0.023223
  20 H :   -0.033157
  21 H :   -0.027786
  22 H :   -0.020203
  23 H :   -0.031025
  24 H :   -0.032773
  25 H :   -0.021736
  26 H :   -0.011378
  27 H :   -0.008687
  28 H :   -0.045081
  29 H :   -0.060966
  30 H :   -0.002990
  31 H :   -0.038323
  32 H :   -0.024225
  33 H :   -0.034152
  34 H :   -0.158413
  35 H :   -0.021626

  Mayer bond orders larger than 0.100000
B(  0-C ,  1-C ) :   0.9617 B(  0-C , 20-H ) :   0.9788 B(  0-C , 21-H ) :   0.9798
B(  0-C , 22-H ) :   0.9787 B(  1-C ,  2-O ) :   0.9169 B(  1-C , 23-H ) :   0.9783
B(  1-C , 24-H ) :   0.9792 B(  2-O ,  3-C ) :   1.1221 B(  3-C ,  4-O ) :   1.9776
B(  3-C ,  5-C ) :   1.0848 B(  5-C ,  6-C ) :   1.6163 B(  5-C , 12-C ) :   0.9765
B(  6-C ,  7-C ) :   0.9692 B(  6-C ,  8-N ) :   1.1103 B(  7-C , 25-H ) :   0.9906
B(  7-C , 26-H ) :   0.9603 B(  7-C , 27-H ) :   0.9629 B(  8-N ,  9-C ) :   1.2190
B(  8-N , 28-H ) :   0.9501 B(  9-C , 10-S ) :   1.5775 B(  9-C , 11-N ) :   1.2770
B( 11-N , 12-C ) :   1.0019 B( 11-N , 29-H ) :   0.9540 B( 12-C , 13-C ) :   0.9545
B( 12-C , 30-H ) :   1.0006 B( 13-C , 14-C ) :   1.3859 B( 13-C , 19-C ) :   1.3139
B( 14-C , 15-C ) :   1.3750 B( 14-C , 31-H ) :   0.9717 B( 15-C , 16-C ) :   1.3911
B( 15-C , 32-H ) :   0.9659 B( 16-C , 17-C ) :   1.3090 B( 16-C , 33-H ) :   0.9894
B( 17-C , 18-O ) :   1.0691 B( 17-C , 19-C ) :   1.4217 B( 18-O , 34-H ) :   0.9819
B( 19-C , 35-H ) :   0.9583

MP2 TOTAL ENERGY:    -1274.303595822 Eh
FINAL SINGLE POINT ENERGY     -1274.303595821632

DIPOLE MOMENT
-------------
                                X             Y             Z
Electronic contribution:    -11.40549     -11.80767      10.12538
Nuclear contribution   :     12.25670      13.69194     -11.03040
                        -----------------------------------------
Total Dipole Moment    :      0.85122       1.88427      -0.90502
                        -----------------------------------------
Magnitude (a.u.)       :      2.25701
Magnitude (Debye)      :      5.73687

Rotational constants in cm-1:     0.010654     0.008021     0.005109
Rotational constants in MHz :   319.393466   240.448879   153.155975

                             ****ORCA TERMINATED NORMALLY****
TOTAL RUN TIME: 0 days 1 hours 45 minutes 20 seconds 540 msec
