                         Program Version 5.0.0 -  RELEASE  -
|  1> ! RI-MP2 cc-pVTZ cc-pVTZ/c TightSCF KeepDens NoKeepInts
|  2>
|  3> %pointcharges "srfp_output"
|  4>
|  5> *xyz  0  1
|  6>     C     8.3410829    1.0177748   -2.1151158
|  7>     C     7.2503124   -0.0501990   -2.2870626
|  8>     O     6.6603325   -0.3753954   -1.0298035
|  9>     C     5.6123925   -1.3025024   -0.9198336
| 10>     O     5.2244526   -1.8839948   -1.9163807
| 11>     C     5.0951331   -1.5611942    0.4308204
| 12>     C     5.5435764   -0.9017543    1.5374015
| 13>     C     6.5676245    0.2258941    1.7215111
| 14>     N     4.8968368   -1.1306343    2.7140816
| 15>     C     4.2610080   -2.3033070    2.9812829
| 16>     S     3.5124294   -2.7580409    4.4320174
| 17>     N     3.9675896   -3.0722783    1.8618720
| 18>     C     4.1002672   -2.7027628    0.4871291
| 19>     C     2.8045235   -2.4680536   -0.2890556
| 20>     C     2.0379628   -1.2551174   -0.1564276
| 21>     C     0.7915237   -1.0809734   -0.8225179
| 22>     C     0.2641944   -2.1790176   -1.5293290
| 23>     C     1.0025115   -3.3800774   -1.6095425
| 24>     O     0.4016355   -4.4313958   -2.2888894
| 25>     C     2.1739888   -3.5727062   -0.9524298
| 26>     H     9.0432711    0.6488819   -1.3574619
| 27>     H     7.8544848    1.9719506   -1.8785453
| 28>     H     8.8518392    1.1210822   -3.0803338
| 29>     H     6.6001582    0.4674732   -3.0029577
| 30>     H     7.6185582   -0.9867242   -2.7235316
| 31>     H     6.5823564    0.6884199    2.7160155
| 32>     H     6.3076339    1.0206948    1.0116615
| 33>     H     7.5663669   -0.1367665    1.4491512
| 34>     H     5.0362997   -0.3812512    3.3811210
| 35>     H     3.3835973   -3.8905618    1.9856925
| 36>     H     4.5837724   -3.4753880   -0.1231681
| 37>     H     2.5393966   -0.5295413    0.4772123
| 38>     H     0.2756540   -0.1273967   -0.7595418
| 39>     H    -0.6422600   -2.0250541   -2.1072837
| 40>     H    -0.4854714   -4.0829919   -2.4848108
| 41>     H     2.6410552   -4.5426470   -1.0954674
| 42> *
| 43>
| 44>                          ****END OF INPUT****

CARTESIAN COORDINATES (ANGSTROEM)
---------------------------------
  C      8.341083    1.017775   -2.115116
  C      7.250312   -0.050199   -2.287063
  O      6.660332   -0.375395   -1.029804
  C      5.612392   -1.302502   -0.919834
  O      5.224453   -1.883995   -1.916381
  C      5.095133   -1.561194    0.430820
  C      5.543576   -0.901754    1.537401
  C      6.567624    0.225894    1.721511
  N      4.896837   -1.130634    2.714082
  C      4.261008   -2.303307    2.981283
  S      3.512429   -2.758041    4.432017
  N      3.967590   -3.072278    1.861872
  C      4.100267   -2.702763    0.487129
  C      2.804524   -2.468054   -0.289056
  C      2.037963   -1.255117   -0.156428
  C      0.791524   -1.080973   -0.822518
  C      0.264194   -2.179018   -1.529329
  C      1.002511   -3.380077   -1.609543
  O      0.401635   -4.431396   -2.288889
  C      2.173989   -3.572706   -0.952430
  H      9.043271    0.648882   -1.357462
  H      7.854485    1.971951   -1.878545
  H      8.851839    1.121082   -3.080334
  H      6.600158    0.467473   -3.002958
  H      7.618558   -0.986724   -2.723532
  H      6.582356    0.688420    2.716016
  H      6.307634    1.020695    1.011661
  H      7.566367   -0.136767    1.449151
  H      5.036300   -0.381251    3.381121
  H      3.383597   -3.890562    1.985693
  H      4.583772   -3.475388   -0.123168
  H      2.539397   -0.529541    0.477212
  H      0.275654   -0.127397   -0.759542
  H     -0.642260   -2.025054   -2.107284
  H     -0.485471   -4.082992   -2.484811
  H      2.641055   -4.542647   -1.095467

 Total Charge           Charge          ....    0
 Multiplicity           Mult            ....    1
 Number of Electrons    NEL             ....  154
 Basis Dimension        Dim             ....  828

ORBITAL ENERGIES
----------------

  NO   OCC          E(Eh)            E(eV)
   0   2.0000     -91.332433     -2485.2819
   1   2.0000     -19.993127      -544.0406
   2   2.0000     -19.985659      -543.8374
   3   2.0000     -19.962614      -543.2103
   4   2.0000     -15.039658      -409.2499
   5   2.0000     -15.020382      -408.7254
   6   2.0000     -10.823425      -294.5204
   7   2.0000     -10.807383      -294.0838
   8   2.0000     -10.738349      -292.2053
   9   2.0000     -10.706173      -291.3298
  10   2.0000     -10.705154      -291.3021
  11   2.0000     -10.675701      -290.5006
  12   2.0000     -10.667327      -290.2727
  13   2.0000     -10.658300      -290.0271
  14   2.0000     -10.656481      -289.9776
  15   2.0000     -10.644071      -289.6399
  16   2.0000     -10.643312      -289.6193
  17   2.0000     -10.642777      -289.6047
  18   2.0000     -10.638035      -289.4756
  19   2.0000     -10.610217      -288.7187
  20   2.0000      -8.337595      -226.8775
  21   2.0000      -6.019446      -163.7975
  22   2.0000      -6.017536      -163.7455
  23   2.0000      -6.017138      -163.7346
  24   2.0000      -0.851852       -23.1801
  25   2.0000      -0.797331       -21.6965
  26   2.0000      -0.762904       -20.7597
  27   2.0000      -0.761184       -20.7129
  28   2.0000      -0.655905       -17.8481
  29   2.0000      -0.554574       -15.0907
  30   2.0000      -0.525316       -14.2946
  31   2.0000      -0.440661       -11.9910
  32   2.0000      -0.428418       -11.6579
  33   2.0000      -0.416398       -11.3308
  34   2.0000      -0.401177       -10.9166
  35   2.0000      -0.392493       -10.6803
  36   2.0000      -0.328509        -8.9392
  37   2.0000      -0.282327        -7.6825
  38   2.0000      -0.267392        -7.2761
  39   2.0000      -0.240024        -6.5314
  40   2.0000      -0.222042        -6.0421
  41   2.0000      -0.209136        -5.6909
  42   2.0000      -0.155836        -4.2405
  43   2.0000      -0.151020        -4.1095
  44   2.0000      -0.122364        -3.3297
  45   2.0000      -0.102654        -2.7933
  46   2.0000      -0.091908        -2.5010
  47   2.0000      -0.082691        -2.2501
  48   2.0000      -0.071842        -1.9549
  49   2.0000      -0.064504        -1.7553
  50   2.0000      -0.050922        -1.3857
  51   2.0000      -0.043483        -1.1832
  52   2.0000      -0.027820        -0.7570
  53   2.0000      -0.017586        -0.4785
  54   2.0000       0.005480         0.1491
  55   2.0000       0.006116         0.1664
  56   2.0000       0.013796         0.3754
  57   2.0000       0.020469         0.5570
  58   2.0000       0.029788         0.8106
  59   2.0000       0.036392         0.9903
  60   2.0000       0.040475         1.1014
  61   2.0000       0.056834         1.5465
  62   2.0000       0.060390         1.6433
  63   2.0000       0.071047         1.9333
  64   2.0000       0.080826         2.1994
  65   2.0000       0.085760         2.3337
  66   2.0000       0.099330         2.7029
  67   2.0000       0.113185         3.0799
  68   2.0000       0.120433         3.2772
  69   2.0000       0.136659         3.7187
  70   2.0000       0.138830         3.7778
  71   2.0000       0.151488         4.1222
  72   2.0000       0.221843         6.0367
  73   2.0000       0.230509         6.2725
  74   2.0000       0.250214         6.8087
  75   2.0000       0.255131         6.9425
  76   2.0000       0.278797         7.5864
  77   0.0000       0.656844        17.8736
  78   0.0000       0.705590        19.2001
  79   0.0000       0.725613        19.7449
  80   0.0000       0.735841        20.0232
  81   0.0000       0.751541        20.4505

MULLIKEN ATOMIC CHARGES
-----------------------
   0 C :   -0.269171
   1 C :    0.045020
   2 O :   -0.342619
   3 C :    0.491464
   4 O :   -0.576405
   5 C :   -0.205418
   6 C :    0.200361
   7 C :   -0.277642
   8 N :   -0.122251
   9 C :    0.354678
  10 S :   -0.720411
  11 N :   -0.210057
  12 C :    0.073151
  13 C :    0.006603
  14 C :   -0.284415
  15 C :   -0.157311
  16 C :   -0.284290
  17 C :    0.344425
  18 O :   -0.465195
  19 C :   -0.241699
  20 H :    0.094652
  21 H :    0.101896
  22 H :    0.110839
  23 H :    0.091485
  24 H :    0.094297
  25 H :    0.125750
  26 H :    0.135248
  27 H :    0.140558
  28 H :    0.263564
  29 H :    0.249620
  30 H :    0.157543
  31 H :    0.198179
  32 H :    0.204080
  33 H :    0.180089
  34 H :    0.324471
  35 H :    0.168912
Sum of atomic charges:   -0.0000000

LOEWDIN ATOMIC CHARGES
----------------------
   0 C :    0.117902
   1 C :   -0.033869
   2 O :    0.292518
   3 C :   -0.367873
   4 O :    0.014244
   5 C :   -0.098802
   6 C :   -0.037429
   7 C :    0.146040
   8 N :    0.436942
   9 C :   -0.357985
  10 S :   -0.258411
  11 N :    0.417126
  12 C :   -0.080238
  13 C :   -0.023575
  14 C :    0.011949
  15 C :    0.036992
  16 C :    0.016567
  17 C :   -0.188349
  18 O :    0.327363
  19 C :    0.019240
  20 H :   -0.030579
  21 H :   -0.024433
  22 H :   -0.015834
  23 H :   -0.027740
  24 H :   -0.032577
  25 H :   -0.010506
  26 H :   -0.004820
  27 H :   -0.004119
  28 H :   -0.013011
  29 H :   -0.034036
  30 H :    0.001831
  31 H :   -0.028260
  32 H :   -0.013716
  33 H :   -0.015926
  34 H :   -0.120585
  35 H :   -0.016039

  Mayer bond orders larger than 0.100000
B(  0-C ,  1-C ) :   0.9666 B(  0-C , 20-H ) :   0.9788 B(  0-C , 21-H ) :   0.9790
B(  0-C , 22-H ) :   0.9761 B(  1-C ,  2-O ) :   0.8986 B(  1-C , 23-H ) :   0.9772
B(  1-C , 24-H ) :   0.9787 B(  2-O ,  3-C ) :   1.1740 B(  3-C ,  4-O ) :   1.8895
B(  3-C ,  5-C ) :   1.1141 B(  5-C ,  6-C ) :   1.5890 B(  5-C , 12-C ) :   0.9681
B(  6-C ,  7-C ) :   0.9702 B(  6-C ,  8-N ) :   1.1106 B(  7-C , 25-H ) :   0.9859
B(  7-C , 26-H ) :   0.9558 B(  7-C , 27-H ) :   0.9576 B(  8-N ,  9-C ) :   1.3141
B(  8-N , 28-H ) :   0.9149 B(  9-C , 10-S ) :   1.2323 B(  9-C , 11-N ) :   1.3687
B( 11-N , 12-C ) :   0.9911 B( 11-N , 29-H ) :   0.9279 B( 12-C , 13-C ) :   0.9465
B( 12-C , 30-H ) :   1.0003 B( 13-C , 14-C ) :   1.3650 B( 13-C , 19-C ) :   1.3282
B( 14-C , 15-C ) :   1.3620 B( 14-C , 31-H ) :   0.9588 B( 15-C , 16-C ) :   1.3645
B( 15-C , 32-H ) :   0.9537 B( 16-C , 17-C ) :   1.3045 B( 16-C , 33-H ) :   0.9742
B( 17-C , 18-O ) :   1.0721 B( 17-C , 19-C ) :   1.3945 B( 18-O , 34-H ) :   0.9215
B( 19-C , 35-H ) :   0.9554

MP2 TOTAL ENERGY:    -1274.435998964 Eh
FINAL SINGLE POINT ENERGY     -1274.435998964103

DIPOLE MOMENT
-------------
                                X             Y             Z
Electronic contribution:    -10.83160     -10.85598       9.55243
Nuclear contribution   :     12.25670      13.69194     -11.03040
                        -----------------------------------------
Total Dipole Moment    :      1.42510       2.83596      -1.47797
                        -----------------------------------------
Magnitude (a.u.)       :      3.50114
Magnitude (Debye)      :      8.89919

Rotational constants in cm-1:     0.010654     0.008021     0.005109
Rotational constants in MHz :   319.393466   240.448879   153.155975

                             ****ORCA TERMINATED NORMALLY****
TOTAL RUN TIME: 0 days 1 hours 49 minutes 16 seconds 400 msec
