                         Program Version 5.0.0 -  RELEASE  -
|  1> ! RI-MP2 cc-pVTZ cc-pVTZ/c TightSCF KeepDens NoKeepInts
|  2>
|  3> *xyz  0  1
|  4>     C    16.8555676    5.8553371    2.4417323
|  5>     C    15.8993674    6.9127721    1.7889777
|  6>     O    14.7904685    6.2373265    1.2363442
|  7>     C    13.9633314    6.8772751    0.3958253
|  8>     O    14.1764272    8.0486702    0.1320562
|  9>     C    12.7873945    6.0603240   -0.0142493
| 10>     C    12.3243389    4.9467701    0.6125104
| 11>     C    12.9985279    4.1586078    1.7945356
| 12>     N    11.1763048    4.2826439    0.1391495
| 13>     C    10.5951704    4.5767631   -1.0499428
| 14>     S     9.4562383    3.6701344   -1.8433993
| 15>     N    11.1007371    5.6651441   -1.6350729
| 16>     C    11.9441226    6.6926593   -1.0745062
| 17>     C    11.1486681    7.9263945   -0.6914468
| 18>     C    10.9337204    8.2821435    0.5988688
| 19>     C    10.1683244    9.4266807    1.0306863
| 20>     C     9.6881117   10.2677642    0.0164304
| 21>     C     9.8941144    9.9029210   -1.3261473
| 22>     O     9.3581535   10.6077880   -2.3068888
| 23>     C    10.6304743    8.7014556   -1.6944600
| 24>     H    17.7173747    6.2816219    2.9697063
| 25>     H    17.2707081    5.1250112    1.7364150
| 26>     H    16.3207164    5.2675283    3.1977777
| 27>     H    15.4965633    7.7018203    2.4357710
| 28>     H    16.4398577    7.5383760    1.0680896
| 29>     H    14.0051523    3.8369447    1.5005461
| 30>     H    12.4138230    3.2657166    2.0476319
| 31>     H    13.0405315    4.8627481    2.6345428
| 32>     H    10.9130574    3.3877185    0.5338339
| 33>     H    10.7311289    5.7939836   -2.5692909
| 34>     H    12.6268626    6.9770061   -1.8845726
| 35>     H    11.4047217    7.6578060    1.3523650
| 36>     H    10.0733306    9.7073255    2.0754880
| 37>     H     9.1052994   11.1704072    0.1744228
| 38>     H     8.8587078    9.9159843   -2.7745325
| 39>     H    10.7896441    8.4591108   -2.7410402
| 40> *
| 41>
| 42>                          ****END OF INPUT****

CARTESIAN COORDINATES (ANGSTROEM)
---------------------------------
  C     16.855568    5.855337    2.441732
  C     15.899367    6.912772    1.788978
  O     14.790468    6.237326    1.236344
  C     13.963331    6.877275    0.395825
  O     14.176427    8.048670    0.132056
  C     12.787394    6.060324   -0.014249
  C     12.324339    4.946770    0.612510
  C     12.998528    4.158608    1.794536
  N     11.176305    4.282644    0.139150
  C     10.595170    4.576763   -1.049943
  S      9.456238    3.670134   -1.843399
  N     11.100737    5.665144   -1.635073
  C     11.944123    6.692659   -1.074506
  C     11.148668    7.926394   -0.691447
  C     10.933720    8.282144    0.598869
  C     10.168324    9.426681    1.030686
  C      9.688112   10.267764    0.016430
  C      9.894114    9.902921   -1.326147
  O      9.358153   10.607788   -2.306889
  C     10.630474    8.701456   -1.694460
  H     17.717375    6.281622    2.969706
  H     17.270708    5.125011    1.736415
  H     16.320716    5.267528    3.197778
  H     15.496563    7.701820    2.435771
  H     16.439858    7.538376    1.068090
  H     14.005152    3.836945    1.500546
  H     12.413823    3.265717    2.047632
  H     13.040532    4.862748    2.634543
  H     10.913057    3.387719    0.533834
  H     10.731129    5.793984   -2.569291
  H     12.626863    6.977006   -1.884573
  H     11.404722    7.657806    1.352365
  H     10.073331    9.707325    2.075488
  H      9.105299   11.170407    0.174423
  H      8.858708    9.915984   -2.774532
  H     10.789644    8.459111   -2.741040

 Total Charge           Charge          ....    0
 Multiplicity           Mult            ....    1
 Number of Electrons    NEL             ....  154
 Basis Dimension        Dim             ....  828

ORBITAL ENERGIES
----------------

  NO   OCC          E(Eh)            E(eV)
   0   2.0000     -91.888666     -2500.4177
   1   2.0000     -20.605482      -560.7037
   2   2.0000     -20.587029      -560.2015
   3   2.0000     -20.545243      -559.0645
   4   2.0000     -15.633891      -425.4198
   5   2.0000     -15.604286      -424.6142
   6   2.0000     -11.394139      -310.0503
   7   2.0000     -11.379100      -309.6410
   8   2.0000     -11.346538      -308.7550
   9   2.0000     -11.306552      -307.6669
  10   2.0000     -11.301596      -307.5321
  11   2.0000     -11.300462      -307.5012
  12   2.0000     -11.269278      -306.6526
  13   2.0000     -11.261534      -306.4419
  14   2.0000     -11.253848      -306.2328
  15   2.0000     -11.242285      -305.9181
  16   2.0000     -11.240792      -305.8775
  17   2.0000     -11.235804      -305.7418
  18   2.0000     -11.234594      -305.7088
  19   2.0000     -11.228621      -305.5463
  20   2.0000      -8.893711      -242.0102
  21   2.0000      -6.575327      -178.9237
  22   2.0000      -6.573233      -178.8668
  23   2.0000      -6.572708      -178.8525
  24   2.0000      -1.472288       -40.0630
  25   2.0000      -1.427143       -38.8345
  26   2.0000      -1.359256       -36.9872
  27   2.0000      -1.356345       -36.9080
  28   2.0000      -1.247042       -33.9337
  29   2.0000      -1.159098       -31.5407
  30   2.0000      -1.124912       -30.6104
  31   2.0000      -1.049170       -28.5494
  32   2.0000      -1.036085       -28.1933
  33   2.0000      -1.007662       -27.4199
  34   2.0000      -0.989893       -26.9364
  35   2.0000      -0.984796       -26.7977
  36   2.0000      -0.926357       -25.2074
  37   2.0000      -0.902713       -24.5641
  38   2.0000      -0.858285       -23.3551
  39   2.0000      -0.847462       -23.0606
  40   2.0000      -0.829362       -22.5681
  41   2.0000      -0.806579       -21.9481
  42   2.0000      -0.771362       -20.9898
  43   2.0000      -0.742191       -20.1960
  44   2.0000      -0.735985       -20.0272
  45   2.0000      -0.698749       -19.0139
  46   2.0000      -0.686295       -18.6750
  47   2.0000      -0.682191       -18.5634
  48   2.0000      -0.675700       -18.3867
  49   2.0000      -0.665822       -18.1179
  50   2.0000      -0.660243       -17.9661
  51   2.0000      -0.647336       -17.6149
  52   2.0000      -0.636832       -17.3291
  53   2.0000      -0.627622       -17.0785
  54   2.0000      -0.609361       -16.5816
  55   2.0000      -0.598111       -16.2754
  56   2.0000      -0.592300       -16.1173
  57   2.0000      -0.584785       -15.9128
  58   2.0000      -0.574551       -15.6343
  59   2.0000      -0.566688       -15.4204
  60   2.0000      -0.559096       -15.2138
  61   2.0000      -0.548862       -14.9353
  62   2.0000      -0.533218       -14.5096
  63   2.0000      -0.525894       -14.3103
  64   2.0000      -0.515938       -14.0394
  65   2.0000      -0.507847       -13.8192
  66   2.0000      -0.505357       -13.7515
  67   2.0000      -0.493323       -13.4240
  68   2.0000      -0.476976       -12.9792
  69   2.0000      -0.465402       -12.6642
  70   2.0000      -0.456234       -12.4148
  71   2.0000      -0.453922       -12.3518
  72   2.0000      -0.362012        -9.8508
  73   2.0000      -0.349164        -9.5012
  74   2.0000      -0.328487        -8.9386
  75   2.0000      -0.319859        -8.7038
  76   2.0000      -0.310578        -8.4513
  77   0.0000       0.077326         2.1041
  78   0.0000       0.104037         2.8310
  79   0.0000       0.113274         3.0823
  80   0.0000       0.126246         3.4353
  81   0.0000       0.135980         3.7002

MULLIKEN ATOMIC CHARGES
-----------------------
   0 C :   -0.282539
   1 C :    0.015298
   2 O :   -0.306143
   3 C :    0.429537
   4 O :   -0.424956
   5 C :   -0.184174
   6 C :    0.099294
   7 C :   -0.261828
   8 N :   -0.137066
   9 C :    0.209118
  10 S :   -0.459567
  11 N :   -0.180124
  12 C :    0.049383
  13 C :    0.155200
  14 C :   -0.174517
  15 C :   -0.146677
  16 C :   -0.216957
  17 C :    0.274124
  18 O :   -0.355019
  19 C :   -0.343353
  20 H :    0.107496
  21 H :    0.102548
  22 H :    0.091097
  23 H :    0.093759
  24 H :    0.108342
  25 H :    0.135217
  26 H :    0.105574
  27 H :    0.123609
  28 H :    0.195291
  29 H :    0.184754
  30 H :    0.142347
  31 H :    0.128901
  32 H :    0.165785
  33 H :    0.164378
  34 H :    0.249792
  35 H :    0.142074
Sum of atomic charges:   -0.0000000

LOEWDIN ATOMIC CHARGES
----------------------
   0 C :    0.109467
   1 C :   -0.035568
   2 O :    0.344237
   3 C :   -0.438873
   4 O :    0.108245
   5 C :   -0.104014
   6 C :   -0.031345
   7 C :    0.139676
   8 N :    0.403738
   9 C :   -0.478562
  10 S :   -0.048390
  11 N :    0.418613
  12 C :   -0.067250
  13 C :   -0.067881
  14 C :    0.021414
  15 C :    0.062249
  16 C :    0.013020
  17 C :   -0.209487
  18 O :    0.409889
  19 C :    0.024933
  20 H :   -0.024116
  21 H :   -0.026998
  22 H :   -0.031189
  23 H :   -0.032074
  24 H :   -0.028979
  25 H :   -0.013403
  26 H :   -0.025923
  27 H :   -0.016394
  28 H :   -0.052512
  29 H :   -0.062943
  30 H :    0.001836
  31 H :   -0.035240
  32 H :   -0.025165
  33 H :   -0.026677
  34 H :   -0.140935
  35 H :   -0.033397

  Mayer bond orders larger than 0.100000
B(  0-C ,  1-C ) :   0.9736 B(  0-C , 20-H ) :   0.9780 B(  0-C , 21-H ) :   0.9749
B(  0-C , 22-H ) :   0.9779 B(  1-C ,  2-O ) :   0.9114 B(  1-C , 23-H ) :   0.9760
B(  1-C , 24-H ) :   0.9743 B(  2-O ,  3-C ) :   1.1942 B(  3-C ,  4-O ) :   1.9903
B(  3-C ,  5-C ) :   1.0403 B(  5-C ,  6-C ) :   1.6569 B(  5-C , 12-C ) :   0.9962
B(  6-C ,  7-C ) :   0.9519 B(  6-C ,  8-N ) :   1.1525 B(  7-C , 25-H ) :   0.9615
B(  7-C , 26-H ) :   0.9897 B(  7-C , 27-H ) :   0.9684 B(  8-N ,  9-C ) :   1.1925
B(  8-N , 28-H ) :   0.9520 B(  9-C , 10-S ) :   1.5688 B(  9-C , 11-N ) :   1.3404
B( 11-N , 12-C ) :   0.9366 B( 11-N , 29-H ) :   0.9525 B( 12-C , 13-C ) :   0.9771
B( 12-C , 30-H ) :   0.9934 B( 13-C , 14-C ) :   1.3733 B( 13-C , 19-C ) :   1.2863
B( 14-C , 15-C ) :   1.3760 B( 14-C , 31-H ) :   0.9739 B( 15-C , 16-C ) :   1.3903
B( 15-C , 32-H ) :   0.9689 B( 16-C , 17-C ) :   1.3959 B( 16-C , 33-H ) :   0.9587
B( 17-C , 18-O ) :   1.0347 B( 17-C , 19-C ) :   1.3795 B( 18-O , 34-H ) :   0.9683
B( 19-C , 35-H ) :   0.9693

MP2 TOTAL ENERGY:    -1274.313918218 Eh
FINAL SINGLE POINT ENERGY     -1274.313918217816

DIPOLE MOMENT
-------------
                                X             Y             Z
Electronic contribution:    -14.69086       0.31197     -12.17673
Nuclear contribution   :     15.96876      -0.73766      13.59418
                        -----------------------------------------
Total Dipole Moment    :      1.27790      -0.42569       1.41745
                        -----------------------------------------
Magnitude (a.u.)       :      1.95535
Magnitude (Debye)      :      4.97011

Rotational constants in cm-1:     0.011504     0.007868     0.005208
Rotational constants in MHz :   344.873864   235.865156   156.144592

                             ****ORCA TERMINATED NORMALLY****
TOTAL RUN TIME: 0 days 1 hours 56 minutes 14 seconds 714 msec
