                         Program Version 5.0.0 -  RELEASE  -
|  1> ! RI-MP2 cc-pVTZ cc-pVTZ/c TightSCF KeepDens NoKeepInts
|  2>
|  3> %pointcharges "srfp_output"
|  4>
|  5> *xyz  0  1
|  6>     C    16.8555676    5.8553371    2.4417323
|  7>     C    15.8993674    6.9127721    1.7889777
|  8>     O    14.7904685    6.2373265    1.2363442
|  9>     C    13.9633314    6.8772751    0.3958253
| 10>     O    14.1764272    8.0486702    0.1320562
| 11>     C    12.7873945    6.0603240   -0.0142493
| 12>     C    12.3243389    4.9467701    0.6125104
| 13>     C    12.9985279    4.1586078    1.7945356
| 14>     N    11.1763048    4.2826439    0.1391495
| 15>     C    10.5951704    4.5767631   -1.0499428
| 16>     S     9.4562383    3.6701344   -1.8433993
| 17>     N    11.1007371    5.6651441   -1.6350729
| 18>     C    11.9441226    6.6926593   -1.0745062
| 19>     C    11.1486681    7.9263945   -0.6914468
| 20>     C    10.9337204    8.2821435    0.5988688
| 21>     C    10.1683244    9.4266807    1.0306863
| 22>     C     9.6881117   10.2677642    0.0164304
| 23>     C     9.8941144    9.9029210   -1.3261473
| 24>     O     9.3581535   10.6077880   -2.3068888
| 25>     C    10.6304743    8.7014556   -1.6944600
| 26>     H    17.7173747    6.2816219    2.9697063
| 27>     H    17.2707081    5.1250112    1.7364150
| 28>     H    16.3207164    5.2675283    3.1977777
| 29>     H    15.4965633    7.7018203    2.4357710
| 30>     H    16.4398577    7.5383760    1.0680896
| 31>     H    14.0051523    3.8369447    1.5005461
| 32>     H    12.4138230    3.2657166    2.0476319
| 33>     H    13.0405315    4.8627481    2.6345428
| 34>     H    10.9130574    3.3877185    0.5338339
| 35>     H    10.7311289    5.7939836   -2.5692909
| 36>     H    12.6268626    6.9770061   -1.8845726
| 37>     H    11.4047217    7.6578060    1.3523650
| 38>     H    10.0733306    9.7073255    2.0754880
| 39>     H     9.1052994   11.1704072    0.1744228
| 40>     H     8.8587078    9.9159843   -2.7745325
| 41>     H    10.7896441    8.4591108   -2.7410402
| 42> *
| 43>
| 44>                          ****END OF INPUT****

CARTESIAN COORDINATES (ANGSTROEM)
---------------------------------
  C     16.855568    5.855337    2.441732
  C     15.899367    6.912772    1.788978
  O     14.790468    6.237326    1.236344
  C     13.963331    6.877275    0.395825
  O     14.176427    8.048670    0.132056
  C     12.787394    6.060324   -0.014249
  C     12.324339    4.946770    0.612510
  C     12.998528    4.158608    1.794536
  N     11.176305    4.282644    0.139150
  C     10.595170    4.576763   -1.049943
  S      9.456238    3.670134   -1.843399
  N     11.100737    5.665144   -1.635073
  C     11.944123    6.692659   -1.074506
  C     11.148668    7.926394   -0.691447
  C     10.933720    8.282144    0.598869
  C     10.168324    9.426681    1.030686
  C      9.688112   10.267764    0.016430
  C      9.894114    9.902921   -1.326147
  O      9.358153   10.607788   -2.306889
  C     10.630474    8.701456   -1.694460
  H     17.717375    6.281622    2.969706
  H     17.270708    5.125011    1.736415
  H     16.320716    5.267528    3.197778
  H     15.496563    7.701820    2.435771
  H     16.439858    7.538376    1.068090
  H     14.005152    3.836945    1.500546
  H     12.413823    3.265717    2.047632
  H     13.040532    4.862748    2.634543
  H     10.913057    3.387719    0.533834
  H     10.731129    5.793984   -2.569291
  H     12.626863    6.977006   -1.884573
  H     11.404722    7.657806    1.352365
  H     10.073331    9.707325    2.075488
  H      9.105299   11.170407    0.174423
  H      8.858708    9.915984   -2.774532
  H     10.789644    8.459111   -2.741040

 Total Charge           Charge          ....    0
 Multiplicity           Mult            ....    1
 Number of Electrons    NEL             ....  154
 Basis Dimension        Dim             ....  828

ORBITAL ENERGIES
----------------

  NO   OCC          E(Eh)            E(eV)
   0   2.0000     -89.191447     -2427.0227
   1   2.0000     -17.867668      -486.2040
   2   2.0000     -17.846500      -485.6279
   3   2.0000     -17.828447      -485.1367
   4   2.0000     -12.896202      -350.9235
   5   2.0000     -12.877733      -350.4209
   6   2.0000      -8.674307      -236.0399
   7   2.0000      -8.665321      -235.7954
   8   2.0000      -8.605615      -234.1707
   9   2.0000      -8.570093      -233.2041
  10   2.0000      -8.564402      -233.0492
  11   2.0000      -8.548760      -232.6236
  12   2.0000      -8.521648      -231.8858
  13   2.0000      -8.516716      -231.7516
  14   2.0000      -8.508267      -231.5217
  15   2.0000      -8.506765      -231.4808
  16   2.0000      -8.498813      -231.2645
  17   2.0000      -8.497514      -231.2291
  18   2.0000      -8.493092      -231.1088
  19   2.0000      -8.479563      -230.7406
  20   2.0000      -6.198248      -168.6629
  21   2.0000      -3.880329      -105.5891
  22   2.0000      -3.878234      -105.5321
  23   2.0000      -3.877888      -105.5227
  24   2.0000       1.258614        34.2486
  25   2.0000       1.312022        35.7019
  26   2.0000       1.362806        37.0838
  27   2.0000       1.374771        37.4094
  28   2.0000       1.488403        40.5015
  29   2.0000       1.574367        42.8407
  30   2.0000       1.610196        43.8157
  31   2.0000       1.689137        45.9637
  32   2.0000       1.707346        46.4593
  33   2.0000       1.735710        47.2311
  34   2.0000       1.738353        47.3030
  35   2.0000       1.751085        47.6494
  36   2.0000       1.807888        49.1951
  37   2.0000       1.843674        50.1689
  38   2.0000       1.875942        51.0470
  39   2.0000       1.890431        51.4413
  40   2.0000       1.911722        52.0206
  41   2.0000       1.930351        52.5275
  42   2.0000       1.964151        53.4473
  43   2.0000       1.990777        54.1718
  44   2.0000       2.002552        54.4922
  45   2.0000       2.036754        55.4229
  46   2.0000       2.039537        55.4986
  47   2.0000       2.055341        55.9287
  48   2.0000       2.058510        56.0149
  49   2.0000       2.068192        56.2784
  50   2.0000       2.074402        56.4474
  51   2.0000       2.088969        56.8437
  52   2.0000       2.101088        57.1735
  53   2.0000       2.113618        57.5145
  54   2.0000       2.139312        58.2136
  55   2.0000       2.141944        58.2853
  56   2.0000       2.152962        58.5851
  57   2.0000       2.156057        58.6693
  58   2.0000       2.168361        59.0041
  59   2.0000       2.171674        59.0942
  60   2.0000       2.185899        59.4813
  61   2.0000       2.196982        59.7829
  62   2.0000       2.199215        59.8437
  63   2.0000       2.215088        60.2756
  64   2.0000       2.218742        60.3751
  65   2.0000       2.227704        60.6189
  66   2.0000       2.237071        60.8738
  67   2.0000       2.242888        61.0321
  68   2.0000       2.254415        61.3457
  69   2.0000       2.263527        61.5937
  70   2.0000       2.275197        61.9113
  71   2.0000       2.282509        62.1102
  72   2.0000       2.359094        64.1942
  73   2.0000       2.362490        64.2866
  74   2.0000       2.383760        64.8654
  75   2.0000       2.390423        65.0467
  76   2.0000       2.422675        65.9243
  77   0.0000       2.805682        76.3465
  78   0.0000       2.844698        77.4082
  79   0.0000       2.870895        78.1210
  80   0.0000       2.881129        78.3995
  81   0.0000       2.887474        78.5722

MULLIKEN ATOMIC CHARGES
-----------------------
   0 C :   -0.280592
   1 C :    0.015227
   2 O :   -0.283888
   3 C :    0.502704
   4 O :   -0.591477
   5 C :   -0.180123
   6 C :    0.124685
   7 C :   -0.253513
   8 N :   -0.152564
   9 C :    0.366786
  10 S :   -0.762632
  11 N :   -0.206625
  12 C :    0.080926
  13 C :    0.083526
  14 C :   -0.287516
  15 C :   -0.167538
  16 C :   -0.236709
  17 C :    0.262320
  18 O :   -0.452930
  19 C :   -0.287490
  20 H :    0.115186
  21 H :    0.107871
  22 H :    0.099674
  23 H :    0.097848
  24 H :    0.109585
  25 H :    0.139267
  26 H :    0.125386
  27 H :    0.132380
  28 H :    0.260426
  29 H :    0.257488
  30 H :    0.165093
  31 H :    0.185827
  32 H :    0.201891
  33 H :    0.187375
  34 H :    0.343912
  35 H :    0.178213
Sum of atomic charges:   -0.0000000

LOEWDIN ATOMIC CHARGES
----------------------
   0 C :    0.116039
   1 C :   -0.032443
   2 O :    0.361881
   3 C :   -0.407599
   4 O :    0.003195
   5 C :   -0.100466
   6 C :   -0.007276
   7 C :    0.151865
   8 N :    0.424310
   9 C :   -0.438363
  10 S :   -0.239460
  11 N :    0.443757
  12 C :   -0.060639
  13 C :   -0.084368
  14 C :   -0.002319
  15 C :    0.054448
  16 C :    0.004794
  17 C :   -0.217657
  18 O :    0.372585
  19 C :    0.042269
  20 H :   -0.019928
  21 H :   -0.024341
  22 H :   -0.026993
  23 H :   -0.030494
  24 H :   -0.029521
  25 H :   -0.009342
  26 H :   -0.014904
  27 H :   -0.010929
  28 H :   -0.019912
  29 H :   -0.030331
  30 H :    0.010693
  31 H :   -0.026957
  32 H :   -0.015224
  33 H :   -0.021582
  34 H :   -0.098714
  35 H :   -0.016074

  Mayer bond orders larger than 0.100000
B(  0-C ,  1-C ) :   0.9775 B(  0-C , 20-H ) :   0.9759 B(  0-C , 21-H ) :   0.9739
B(  0-C , 22-H ) :   0.9768 B(  1-C ,  2-O ) :   0.8963 B(  1-C , 23-H ) :   0.9748
B(  1-C , 24-H ) :   0.9725 B(  2-O ,  3-C ) :   1.2483 B(  3-C ,  4-O ) :   1.8869
B(  3-C ,  5-C ) :   1.0730 B(  5-C ,  6-C ) :   1.6224 B(  5-C , 12-C ) :   0.9898
B(  6-C ,  7-C ) :   0.9554 B(  6-C ,  8-N ) :   1.1498 B(  7-C , 25-H ) :   0.9580
B(  7-C , 26-H ) :   0.9845 B(  7-C , 27-H ) :   0.9629 B(  8-N ,  9-C ) :   1.2840
B(  8-N , 28-H ) :   0.9219 B(  9-C , 10-S ) :   1.2105 B(  9-C , 11-N ) :   1.4556
B( 11-N , 12-C ) :   0.9192 B( 11-N , 29-H ) :   0.9242 B( 12-C , 13-C ) :   0.9772
B( 12-C , 30-H ) :   0.9909 B( 13-C , 14-C ) :   1.3171 B( 13-C , 19-C ) :   1.3049
B( 14-C , 15-C ) :   1.3871 B( 14-C , 31-H ) :   0.9641 B( 15-C , 16-C ) :   1.3748
B( 15-C , 32-H ) :   0.9566 B( 16-C , 17-C ) :   1.3805 B( 16-C , 33-H ) :   0.9510
B( 17-C , 18-O ) :   1.0555 B( 17-C , 19-C ) :   1.3607 B( 18-O , 34-H ) :   0.9044
B( 19-C , 35-H ) :   0.9603

MP2 TOTAL ENERGY:    -1274.455746474 Eh
FINAL SINGLE POINT ENERGY     -1274.455746474166

DIPOLE MOMENT
-------------
                                X             Y             Z
Electronic contribution:    -13.93138       0.02035     -11.53300
Nuclear contribution   :     15.96876      -0.73766      13.59418
                        -----------------------------------------
Total Dipole Moment    :      2.03738      -0.71731       2.06118
                        -----------------------------------------
Magnitude (a.u.)       :      2.98562
Magnitude (Debye)      :      7.58884

Rotational constants in cm-1:     0.011504     0.007868     0.005208
Rotational constants in MHz :   344.873864   235.865156   156.144592

                             ****ORCA TERMINATED NORMALLY****
TOTAL RUN TIME: 0 days 1 hours 57 minutes 46 seconds 389 msec
