                         Program Version 5.0.0 -  RELEASE  -
|  1> ! RI-MP2 cc-pVTZ cc-pVTZ/c TightSCF KeepDens NoKeepInts
|  2>
|  3> *xyz  0  1
|  4>     C    13.1831475   -5.6215424    2.9595652
|  5>     C    12.7989426   -4.9360603    1.6405691
|  6>     O    13.7435583   -5.2584847    0.7325764
|  7>     C    13.6585457   -6.4156460   -0.0155003
|  8>     O    12.7233243   -7.1982094    0.0386220
|  9>     C    14.8836800   -6.6634026   -0.8733013
| 10>     C    14.9022514   -7.5788433   -1.8649664
| 11>     C    13.8219059   -8.5040454   -2.4437506
| 12>     N    16.1355516   -7.7779046   -2.5874859
| 13>     C    17.3895481   -7.3763207   -2.1768038
| 14>     S    18.8780784   -7.8570097   -2.9267914
| 15>     N    17.2940756   -6.5110094   -1.1202180
| 16>     C    16.0985581   -5.8525906   -0.5069389
| 17>     C    16.0249618   -4.3364725   -0.8463977
| 18>     C    16.8311600   -3.4026568   -0.1194219
| 19>     C    16.8294373   -2.0467112   -0.5281660
| 20>     C    15.9503795   -1.6002872   -1.4758285
| 21>     C    15.0863095   -2.4614992   -2.1767364
| 22>     O    14.0232673   -1.9851743   -2.9257562
| 23>     C    15.1484228   -3.8291994   -1.7937269
| 24>     H    12.4801166   -5.3138244    3.7433032
| 25>     H    14.2034904   -5.3276127    3.2346929
| 26>     H    13.1014406   -6.7059522    2.8161422
| 27>     H    11.8223631   -5.2194725    1.2292789
| 28>     H    12.7668116   -3.8537524    1.8159802
| 29>     H    12.8085620   -8.0842293   -2.4522396
| 30>     H    13.7537797   -9.4375853   -1.8718663
| 31>     H    14.0096702   -8.7532441   -3.4953380
| 32>     H    15.9707237   -8.2761557   -3.4538254
| 33>     H    18.1491331   -6.3503109   -0.6015475
| 34>     H    16.2314393   -5.9649725    0.5760673
| 35>     H    17.5988132   -3.6709989    0.6003677
| 36>     H    17.6403394   -1.4242898   -0.1615255
| 37>     H    15.9655220   -0.5514085   -1.7569337
| 38>     H    13.7278862   -1.1054093   -2.6333613
| 39>     H    14.4887860   -4.5877900   -2.2045985
| 40> *
| 41>
| 42>                          ****END OF INPUT****

CARTESIAN COORDINATES (ANGSTROEM)
---------------------------------
  C     13.183147   -5.621542    2.959565
  C     12.798943   -4.936060    1.640569
  O     13.743558   -5.258485    0.732576
  C     13.658546   -6.415646   -0.015500
  O     12.723324   -7.198209    0.038622
  C     14.883680   -6.663403   -0.873301
  C     14.902251   -7.578843   -1.864966
  C     13.821906   -8.504045   -2.443751
  N     16.135552   -7.777905   -2.587486
  C     17.389548   -7.376321   -2.176804
  S     18.878078   -7.857010   -2.926791
  N     17.294076   -6.511009   -1.120218
  C     16.098558   -5.852591   -0.506939
  C     16.024962   -4.336473   -0.846398
  C     16.831160   -3.402657   -0.119422
  C     16.829437   -2.046711   -0.528166
  C     15.950380   -1.600287   -1.475828
  C     15.086309   -2.461499   -2.176736
  O     14.023267   -1.985174   -2.925756
  C     15.148423   -3.829199   -1.793727
  H     12.480117   -5.313824    3.743303
  H     14.203490   -5.327613    3.234693
  H     13.101441   -6.705952    2.816142
  H     11.822363   -5.219473    1.229279
  H     12.766812   -3.853752    1.815980
  H     12.808562   -8.084229   -2.452240
  H     13.753780   -9.437585   -1.871866
  H     14.009670   -8.753244   -3.495338
  H     15.970724   -8.276156   -3.453825
  H     18.149133   -6.350311   -0.601548
  H     16.231439   -5.964972    0.576067
  H     17.598813   -3.670999    0.600368
  H     17.640339   -1.424290   -0.161525
  H     15.965522   -0.551408   -1.756934
  H     13.727886   -1.105409   -2.633361
  H     14.488786   -4.587790   -2.204598

 Total Charge           Charge          ....    0
 Multiplicity           Mult            ....    1
 Number of Electrons    NEL             ....  154
 Basis Dimension        Dim             ....  828

ORBITAL ENERGIES
----------------

  NO   OCC          E(Eh)            E(eV)
   0   2.0000     -91.891683     -2500.4998
   1   2.0000     -20.608309      -560.7806
   2   2.0000     -20.595277      -560.4260
   3   2.0000     -20.555097      -559.3326
   4   2.0000     -15.626983      -425.2318
   5   2.0000     -15.611016      -424.7973
   6   2.0000     -11.406460      -310.3856
   7   2.0000     -11.394705      -310.0657
   8   2.0000     -11.342800      -308.6533
   9   2.0000     -11.320986      -308.0597
  10   2.0000     -11.320156      -308.0371
  11   2.0000     -11.288463      -307.1747
  12   2.0000     -11.268271      -306.6252
  13   2.0000     -11.266175      -306.5682
  14   2.0000     -11.262638      -306.4720
  15   2.0000     -11.249291      -306.1088
  16   2.0000     -11.246888      -306.0434
  17   2.0000     -11.242893      -305.9347
  18   2.0000     -11.240992      -305.8830
  19   2.0000     -11.226020      -305.4755
  20   2.0000      -8.893588      -242.0068
  21   2.0000      -6.574869      -178.9113
  22   2.0000      -6.573010      -178.8607
  23   2.0000      -6.572486      -178.8464
  24   2.0000      -1.472966       -40.0814
  25   2.0000      -1.399488       -38.0820
  26   2.0000      -1.375069       -37.4175
  27   2.0000      -1.331653       -36.2361
  28   2.0000      -1.226117       -33.3643
  29   2.0000      -1.159451       -31.5503
  30   2.0000      -1.124573       -30.6012
  31   2.0000      -1.044259       -28.4157
  32   2.0000      -1.040894       -28.3242
  33   2.0000      -1.012574       -27.5535
  34   2.0000      -1.001639       -27.2560
  35   2.0000      -0.968317       -26.3492
  36   2.0000      -0.922669       -25.1071
  37   2.0000      -0.905575       -24.6419
  38   2.0000      -0.849602       -23.1188
  39   2.0000      -0.840130       -22.8611
  40   2.0000      -0.829228       -22.5644
  41   2.0000      -0.811245       -22.0751
  42   2.0000      -0.763764       -20.7831
  43   2.0000      -0.737437       -20.0667
  44   2.0000      -0.723614       -19.6905
  45   2.0000      -0.700458       -19.0604
  46   2.0000      -0.694794       -18.9063
  47   2.0000      -0.688993       -18.7485
  48   2.0000      -0.676307       -18.4032
  49   2.0000      -0.656021       -17.8512
  50   2.0000      -0.650232       -17.6937
  51   2.0000      -0.645812       -17.5735
  52   2.0000      -0.628060       -17.0904
  53   2.0000      -0.616147       -16.7662
  54   2.0000      -0.609160       -16.5761
  55   2.0000      -0.602170       -16.3859
  56   2.0000      -0.599618       -16.3164
  57   2.0000      -0.576782       -15.6950
  58   2.0000      -0.573137       -15.5959
  59   2.0000      -0.562435       -15.3046
  60   2.0000      -0.558351       -15.1935
  61   2.0000      -0.545285       -14.8380
  62   2.0000      -0.540180       -14.6990
  63   2.0000      -0.538785       -14.6611
  64   2.0000      -0.529313       -14.4033
  65   2.0000      -0.509503       -13.8643
  66   2.0000      -0.494911       -13.4672
  67   2.0000      -0.491157       -13.3651
  68   2.0000      -0.483665       -13.1612
  69   2.0000      -0.464268       -12.6334
  70   2.0000      -0.452146       -12.3035
  71   2.0000      -0.447375       -12.1737
  72   2.0000      -0.362884        -9.8746
  73   2.0000      -0.350720        -9.5436
  74   2.0000      -0.325082        -8.8459
  75   2.0000      -0.319986        -8.7073
  76   2.0000      -0.313887        -8.5413
  77   0.0000       0.075286         2.0486
  78   0.0000       0.105057         2.8588
  79   0.0000       0.114109         3.1051
  80   0.0000       0.119524         3.2524
  81   0.0000       0.129985         3.5371

MULLIKEN ATOMIC CHARGES
-----------------------
   0 C :   -0.291901
   1 C :    0.017665
   2 O :   -0.307483
   3 C :    0.491704
   4 O :   -0.421227
   5 C :   -0.232116
   6 C :    0.149642
   7 C :   -0.265176
   8 N :   -0.165656
   9 C :    0.223386
  10 S :   -0.449748
  11 N :   -0.234272
  12 C :    0.081760
  13 C :    0.100454
  14 C :   -0.221232
  15 C :   -0.134838
  16 C :   -0.242774
  17 C :    0.258573
  18 O :   -0.373285
  19 C :   -0.204671
  20 H :    0.094068
  21 H :    0.093555
  22 H :    0.106920
  23 H :    0.092717
  24 H :    0.099122
  25 H :    0.130421
  26 H :    0.131056
  27 H :    0.093414
  28 H :    0.195132
  29 H :    0.187055
  30 H :    0.149009
  31 H :    0.144779
  32 H :    0.160600
  33 H :    0.141193
  34 H :    0.250058
  35 H :    0.152096
Sum of atomic charges:    0.0000000

LOEWDIN ATOMIC CHARGES
----------------------
   0 C :    0.106264
   1 C :   -0.104179
   2 O :    0.370046
   3 C :   -0.379684
   4 O :    0.102730
   5 C :   -0.102655
   6 C :   -0.028571
   7 C :    0.133523
   8 N :    0.387210
   9 C :   -0.393242
  10 S :   -0.121337
  11 N :    0.389094
  12 C :   -0.039474
  13 C :   -0.029096
  14 C :    0.031973
  15 C :    0.028059
  16 C :   -0.007308
  17 C :   -0.153392
  18 O :    0.362008
  19 C :    0.028839
  20 H :   -0.027322
  21 H :   -0.029404
  22 H :   -0.027355
  23 H :   -0.030739
  24 H :   -0.024374
  25 H :   -0.008085
  26 H :   -0.005789
  27 H :   -0.020485
  28 H :   -0.063438
  29 H :   -0.069564
  30 H :   -0.007380
  31 H :   -0.035241
  32 H :   -0.018613
  33 H :   -0.028966
  34 H :   -0.152969
  35 H :   -0.031084

  Mayer bond orders larger than 0.100000
B(  0-C ,  1-C ) :   0.9586 B(  0-C , 20-H ) :   0.9802 B(  0-C , 21-H ) :   0.9773
B(  0-C , 22-H ) :   0.9778 B(  1-C ,  2-O ) :   0.9348 B(  1-C , 23-H ) :   0.9814
B(  1-C , 24-H ) :   0.9821 B(  2-O ,  3-C ) :   1.1471 B(  3-C ,  4-O ) :   1.9741
B(  3-C ,  5-C ) :   1.0407 B(  5-C ,  6-C ) :   1.6903 B(  5-C , 12-C ) :   0.9728
B(  6-C ,  7-C ) :   0.9738 B(  6-C ,  8-N ) :   1.0913 B(  7-C , 25-H ) :   0.9648
B(  7-C , 26-H ) :   0.9602 B(  7-C , 27-H ) :   0.9851 B(  8-N ,  9-C ) :   1.2096
B(  8-N , 28-H ) :   0.9555 B(  9-C , 10-S ) :   1.5078 B(  9-C , 11-N ) :   1.3182
B( 11-N , 12-C ) :   0.9167 B( 11-N , 29-H ) :   0.9605 B( 12-C , 13-C ) :   0.9711
B( 12-C , 30-H ) :   0.9980 B( 13-C , 14-C ) :   1.3408 B( 13-C , 19-C ) :   1.3538
B( 14-C , 15-C ) :   1.4032 B( 14-C , 31-H ) :   0.9765 B( 15-C , 16-C ) :   1.3590
B( 15-C , 32-H ) :   0.9707 B( 16-C , 17-C ) :   1.3677 B( 16-C , 33-H ) :   0.9772
B( 17-C , 18-O ) :   1.0803 B( 17-C , 19-C ) :   1.3462 B( 18-O , 34-H ) :   0.9711
B( 19-C , 35-H ) :   0.9587

MP2 TOTAL ENERGY:    -1274.306205857 Eh
FINAL SINGLE POINT ENERGY     -1274.306205856935

DIPOLE MOMENT
-------------
                                X             Y             Z
Electronic contribution:     10.13188      -2.32539     -10.38636
Nuclear contribution   :    -11.60631       3.69450      11.52691
                        -----------------------------------------
Total Dipole Moment    :     -1.47443       1.36911       1.14056
                        -----------------------------------------
Magnitude (a.u.)       :      2.31285
Magnitude (Debye)      :      5.87880

Rotational constants in cm-1:     0.010761     0.008446     0.006056
Rotational constants in MHz :   322.612195   253.208604   181.554575

                             ****ORCA TERMINATED NORMALLY****
TOTAL RUN TIME: 0 days 2 hours 8 minutes 36 seconds 513 msec
