                         Program Version 5.0.0 -  RELEASE  -
|  1> ! RI-MP2 cc-pVTZ cc-pVTZ/c TightSCF KeepDens NoKeepInts
|  2>
|  3> %pointcharges "srfp_output"
|  4>
|  5> *xyz  0  1
|  6>     C    13.1831475   -5.6215424    2.9595652
|  7>     C    12.7989426   -4.9360603    1.6405691
|  8>     O    13.7435583   -5.2584847    0.7325764
|  9>     C    13.6585457   -6.4156460   -0.0155003
| 10>     O    12.7233243   -7.1982094    0.0386220
| 11>     C    14.8836800   -6.6634026   -0.8733013
| 12>     C    14.9022514   -7.5788433   -1.8649664
| 13>     C    13.8219059   -8.5040454   -2.4437506
| 14>     N    16.1355516   -7.7779046   -2.5874859
| 15>     C    17.3895481   -7.3763207   -2.1768038
| 16>     S    18.8780784   -7.8570097   -2.9267914
| 17>     N    17.2940756   -6.5110094   -1.1202180
| 18>     C    16.0985581   -5.8525906   -0.5069389
| 19>     C    16.0249618   -4.3364725   -0.8463977
| 20>     C    16.8311600   -3.4026568   -0.1194219
| 21>     C    16.8294373   -2.0467112   -0.5281660
| 22>     C    15.9503795   -1.6002872   -1.4758285
| 23>     C    15.0863095   -2.4614992   -2.1767364
| 24>     O    14.0232673   -1.9851743   -2.9257562
| 25>     C    15.1484228   -3.8291994   -1.7937269
| 26>     H    12.4801166   -5.3138244    3.7433032
| 27>     H    14.2034904   -5.3276127    3.2346929
| 28>     H    13.1014406   -6.7059522    2.8161422
| 29>     H    11.8223631   -5.2194725    1.2292789
| 30>     H    12.7668116   -3.8537524    1.8159802
| 31>     H    12.8085620   -8.0842293   -2.4522396
| 32>     H    13.7537797   -9.4375853   -1.8718663
| 33>     H    14.0096702   -8.7532441   -3.4953380
| 34>     H    15.9707237   -8.2761557   -3.4538254
| 35>     H    18.1491331   -6.3503109   -0.6015475
| 36>     H    16.2314393   -5.9649725    0.5760673
| 37>     H    17.5988132   -3.6709989    0.6003677
| 38>     H    17.6403394   -1.4242898   -0.1615255
| 39>     H    15.9655220   -0.5514085   -1.7569337
| 40>     H    13.7278862   -1.1054093   -2.6333613
| 41>     H    14.4887860   -4.5877900   -2.2045985
| 42> *
| 43>
| 44>                          ****END OF INPUT****

CARTESIAN COORDINATES (ANGSTROEM)
---------------------------------
  C     13.183147   -5.621542    2.959565
  C     12.798943   -4.936060    1.640569
  O     13.743558   -5.258485    0.732576
  C     13.658546   -6.415646   -0.015500
  O     12.723324   -7.198209    0.038622
  C     14.883680   -6.663403   -0.873301
  C     14.902251   -7.578843   -1.864966
  C     13.821906   -8.504045   -2.443751
  N     16.135552   -7.777905   -2.587486
  C     17.389548   -7.376321   -2.176804
  S     18.878078   -7.857010   -2.926791
  N     17.294076   -6.511009   -1.120218
  C     16.098558   -5.852591   -0.506939
  C     16.024962   -4.336473   -0.846398
  C     16.831160   -3.402657   -0.119422
  C     16.829437   -2.046711   -0.528166
  C     15.950380   -1.600287   -1.475828
  C     15.086309   -2.461499   -2.176736
  O     14.023267   -1.985174   -2.925756
  C     15.148423   -3.829199   -1.793727
  H     12.480117   -5.313824    3.743303
  H     14.203490   -5.327613    3.234693
  H     13.101441   -6.705952    2.816142
  H     11.822363   -5.219473    1.229279
  H     12.766812   -3.853752    1.815980
  H     12.808562   -8.084229   -2.452240
  H     13.753780   -9.437585   -1.871866
  H     14.009670   -8.753244   -3.495338
  H     15.970724   -8.276156   -3.453825
  H     18.149133   -6.350311   -0.601548
  H     16.231439   -5.964972    0.576067
  H     17.598813   -3.670999    0.600368
  H     17.640339   -1.424290   -0.161525
  H     15.965522   -0.551408   -1.756934
  H     13.727886   -1.105409   -2.633361
  H     14.488786   -4.587790   -2.204598

 Total Charge           Charge          ....    0
 Multiplicity           Mult            ....    1
 Number of Electrons    NEL             ....  154
 Basis Dimension        Dim             ....  828

ORBITAL ENERGIES
----------------

  NO   OCC          E(Eh)            E(eV)
   0   2.0000     -91.463265     -2488.8420
   1   2.0000     -20.168980      -548.8259
   2   2.0000     -20.145574      -548.1889
   3   2.0000     -20.126965      -547.6826
   4   2.0000     -15.175542      -412.9475
   5   2.0000     -15.163452      -412.6185
   6   2.0000     -10.976778      -298.6933
   7   2.0000     -10.958489      -298.1956
   8   2.0000     -10.894985      -296.4676
   9   2.0000     -10.876868      -295.9746
  10   2.0000     -10.870465      -295.8004
  11   2.0000     -10.836142      -294.8664
  12   2.0000     -10.822045      -294.4828
  13   2.0000     -10.819653      -294.4177
  14   2.0000     -10.801996      -293.9372
  15   2.0000     -10.801284      -293.9179
  16   2.0000     -10.800611      -293.8996
  17   2.0000     -10.800108      -293.8859
  18   2.0000     -10.794986      -293.7465
  19   2.0000     -10.769374      -293.0496
  20   2.0000      -8.466390      -230.3822
  21   2.0000      -6.148007      -167.2958
  22   2.0000      -6.146165      -167.2456
  23   2.0000      -6.145762      -167.2347
  24   2.0000      -1.035946       -28.1895
  25   2.0000      -0.951713       -25.8974
  26   2.0000      -0.945903       -25.7393
  27   2.0000      -0.883315       -24.0362
  28   2.0000      -0.775326       -21.0977
  29   2.0000      -0.716267       -19.4906
  30   2.0000      -0.678705       -18.4685
  31   2.0000      -0.596774       -16.2390
  32   2.0000      -0.592347       -16.1186
  33   2.0000      -0.568049       -15.4574
  34   2.0000      -0.547814       -14.9068
  35   2.0000      -0.529034       -14.3957
  36   2.0000      -0.475247       -12.9321
  37   2.0000      -0.459258       -12.4970
  38   2.0000      -0.403759       -10.9868
  39   2.0000      -0.392893       -10.6912
  40   2.0000      -0.382613       -10.4114
  41   2.0000      -0.364779        -9.9261
  42   2.0000      -0.321500        -8.7485
  43   2.0000      -0.289782        -7.8854
  44   2.0000      -0.279165        -7.5965
  45   2.0000      -0.260951        -7.1008
  46   2.0000      -0.250818        -6.8251
  47   2.0000      -0.240338        -6.5399
  48   2.0000      -0.233572        -6.3558
  49   2.0000      -0.210064        -5.7161
  50   2.0000      -0.203917        -5.5489
  51   2.0000      -0.198796        -5.4095
  52   2.0000      -0.176676        -4.8076
  53   2.0000      -0.171772        -4.6742
  54   2.0000      -0.162229        -4.4145
  55   2.0000      -0.157727        -4.2920
  56   2.0000      -0.144789        -3.9399
  57   2.0000      -0.128516        -3.4971
  58   2.0000      -0.121186        -3.2977
  59   2.0000      -0.113960        -3.1010
  60   2.0000      -0.109580        -2.9818
  61   2.0000      -0.101174        -2.7531
  62   2.0000      -0.091247        -2.4829
  63   2.0000      -0.087708        -2.3867
  64   2.0000      -0.082326        -2.2402
  65   2.0000      -0.077153        -2.0994
  66   2.0000      -0.048371        -1.3162
  67   2.0000      -0.046578        -1.2675
  68   2.0000      -0.040562        -1.1038
  69   2.0000      -0.028212        -0.7677
  70   2.0000      -0.007341        -0.1998
  71   2.0000      -0.002960        -0.0806
  72   2.0000       0.083491         2.2719
  73   2.0000       0.089074         2.4238
  74   2.0000       0.102203         2.7811
  75   2.0000       0.109782         2.9873
  76   2.0000       0.119477         3.2511
  77   0.0000       0.516535        14.0556
  78   0.0000       0.553375        15.0581
  79   0.0000       0.557788        15.1782
  80   0.0000       0.588193        16.0055
  81   0.0000       0.595733        16.2107

MULLIKEN ATOMIC CHARGES
-----------------------
   0 C :   -0.280060
   1 C :   -0.000173
   2 O :   -0.303669
   3 C :    0.544567
   4 O :   -0.541660
   5 C :   -0.248098
   6 C :    0.171948
   7 C :   -0.263490
   8 N :   -0.178865
   9 C :    0.312680
  10 S :   -0.628351
  11 N :   -0.263190
  12 C :    0.122745
  13 C :    0.012762
  14 C :   -0.240247
  15 C :   -0.161714
  16 C :   -0.247727
  17 C :    0.233525
  18 O :   -0.447799
  19 C :   -0.246220
  20 H :    0.106964
  21 H :    0.100303
  22 H :    0.094700
  23 H :    0.092451
  24 H :    0.120235
  25 H :    0.122137
  26 H :    0.135502
  27 H :    0.121649
  28 H :    0.253098
  29 H :    0.248117
  30 H :    0.174061
  31 H :    0.194041
  32 H :    0.196113
  33 H :    0.177287
  34 H :    0.335535
  35 H :    0.180845
Sum of atomic charges:    0.0000000

LOEWDIN ATOMIC CHARGES
----------------------
   0 C :    0.110620
   1 C :   -0.102869
   2 O :    0.374701
   3 C :   -0.359699
   4 O :    0.025974
   5 C :   -0.106016
   6 C :   -0.012659
   7 C :    0.140441
   8 N :    0.402178
   9 C :   -0.366377
  10 S :   -0.239068
  11 N :    0.402891
  12 C :   -0.032426
  13 C :   -0.046716
  14 C :    0.032542
  15 C :    0.023644
  16 C :   -0.005830
  17 C :   -0.177158
  18 O :    0.333180
  19 C :    0.007632
  20 H :   -0.021184
  21 H :   -0.025755
  22 H :   -0.031146
  23 H :   -0.031742
  24 H :   -0.017635
  25 H :   -0.010472
  26 H :   -0.003788
  27 H :   -0.006505
  28 H :   -0.035097
  29 H :   -0.041312
  30 H :    0.002642
  31 H :   -0.019199
  32 H :   -0.007581
  33 H :   -0.016204
  34 H :   -0.112048
  35 H :   -0.027960

  Mayer bond orders larger than 0.100000
B(  0-C ,  1-C ) :   0.9578 B(  0-C , 20-H ) :   0.9782 B(  0-C , 21-H ) :   0.9750
B(  0-C , 22-H ) :   0.9789 B(  1-C ,  2-O ) :   0.9173 B(  1-C , 23-H ) :   0.9796
B(  1-C , 24-H ) :   0.9806 B(  2-O ,  3-C ) :   1.1771 B(  3-C ,  4-O ) :   1.8953
B(  3-C ,  5-C ) :   1.0779 B(  5-C ,  6-C ) :   1.6586 B(  5-C , 12-C ) :   0.9637
B(  6-C ,  7-C ) :   0.9694 B(  6-C ,  8-N ) :   1.1053 B(  7-C , 25-H ) :   0.9668
B(  7-C , 26-H ) :   0.9580 B(  7-C , 27-H ) :   0.9807 B(  8-N ,  9-C ) :   1.2652
B(  8-N , 28-H ) :   0.9242 B(  9-C , 10-S ) :   1.3273 B(  9-C , 11-N ) :   1.3890
B( 11-N , 12-C ) :   0.9048 B( 11-N , 29-H ) :   0.9287 B( 12-C , 13-C ) :   0.9649
B( 12-C , 30-H ) :   0.9921 B( 13-C , 14-C ) :   1.3507 B( 13-C , 19-C ) :   1.3465
B( 14-C , 15-C ) :   1.3860 B( 14-C , 31-H ) :   0.9598 B( 15-C , 16-C ) :   1.3337
B( 15-C , 32-H ) :   0.9599 B( 16-C , 17-C ) :   1.3652 B( 16-C , 33-H ) :   0.9668
B( 17-C , 18-O ) :   1.1036 B( 17-C , 19-C ) :   1.3499 B( 18-O , 34-H ) :   0.9057
B( 19-C , 35-H ) :   0.9477

MP2 TOTAL ENERGY:    -1274.412755876 Eh
FINAL SINGLE POINT ENERGY     -1274.412755875641

DIPOLE MOMENT
-------------
                                X             Y             Z
Electronic contribution:      9.94929      -1.80991      -9.91657
Nuclear contribution   :    -11.60631       3.69450      11.52691
                        -----------------------------------------
Total Dipole Moment    :     -1.65702       1.88460       1.61034
                        -----------------------------------------
Magnitude (a.u.)       :      2.98171
Magnitude (Debye)      :      7.57891

Rotational constants in cm-1:     0.010761     0.008446     0.006056
Rotational constants in MHz :   322.612195   253.208604   181.554575

                             ****ORCA TERMINATED NORMALLY****
TOTAL RUN TIME: 0 days 1 hours 55 minutes 28 seconds 176 msec
