                         Program Version 5.0.0 -  RELEASE  -
|  1> ! RI-MP2 cc-pVTZ cc-pVTZ/c TightSCF KeepDens NoKeepInts
|  2>
|  3> *xyz  0  1
|  4>     C   -16.4367196   -2.1279441    7.3340740
|  5>     C   -16.3752573   -3.4075912    8.2338759
|  6>     O   -15.8220352   -3.0171988    9.5596505
|  7>     C   -15.7579959   -3.9722846   10.5300779
|  8>     O   -16.4199030   -5.0220209   10.6273166
|  9>     C   -14.8928977   -3.4830244   11.7232149
| 10>     C   -13.8986726   -2.5455074   11.5880732
| 11>     C   -13.3434038   -1.8986088   10.3093198
| 12>     N   -13.3865677   -2.0906947   12.8010511
| 13>     C   -13.7049561   -2.5938581   14.0279900
| 14>     S   -13.0881259   -2.0493889   15.5114444
| 15>     N   -14.6403251   -3.5223417   14.1366314
| 16>     C   -15.4520008   -3.9436502   13.0529995
| 17>     C   -16.8924228   -3.6415790   13.3390682
| 18>     C   -17.3442061   -2.3783662   13.5274584
| 19>     C   -18.6727741   -2.1398339   13.8453254
| 20>     C   -19.4829814   -3.2372558   13.9280649
| 21>     C   -19.0516971   -4.5475259   13.9097340
| 22>     O   -20.0036456   -5.5085316   14.0097280
| 23>     C   -17.7689533   -4.7337384   13.5271991
| 24>     H   -17.0524033   -1.3692166    7.8325315
| 25>     H   -16.9763943   -2.4555636    6.4370755
| 26>     H   -15.4126886   -1.7915864    7.1305540
| 27>     H   -17.4041474   -3.6936497    8.4843708
| 28>     H   -15.9036432   -4.2682805    7.7439944
| 29>     H   -13.0459742   -2.7112111    9.6352251
| 30>     H   -12.3881682   -1.3944330   10.5004250
| 31>     H   -14.1168748   -1.2903017    9.8246596
| 32>     H   -12.7862443   -1.2760772   12.8455087
| 33>     H   -14.8849315   -3.8071964   15.0773715
| 34>     H   -15.3877440   -5.0381556   13.0195521
| 35>     H   -16.6501430   -1.5491348   13.4271665
| 36>     H   -19.1139689   -1.1474916   13.8450564
| 37>     H   -20.5075122   -2.9489352   14.1439440
| 38>     H   -19.6351901   -6.3408304   13.6658555
| 39>     H   -17.3841648   -5.7486763   13.4920514
| 40> *
| 41>
| 42>                          ****END OF INPUT****

CARTESIAN COORDINATES (ANGSTROEM)
---------------------------------
  C    -16.436720   -2.127944    7.334074
  C    -16.375257   -3.407591    8.233876
  O    -15.822035   -3.017199    9.559651
  C    -15.757996   -3.972285   10.530078
  O    -16.419903   -5.022021   10.627317
  C    -14.892898   -3.483024   11.723215
  C    -13.898673   -2.545507   11.588073
  C    -13.343404   -1.898609   10.309320
  N    -13.386568   -2.090695   12.801051
  C    -13.704956   -2.593858   14.027990
  S    -13.088126   -2.049389   15.511444
  N    -14.640325   -3.522342   14.136631
  C    -15.452001   -3.943650   13.053000
  C    -16.892423   -3.641579   13.339068
  C    -17.344206   -2.378366   13.527458
  C    -18.672774   -2.139834   13.845325
  C    -19.482981   -3.237256   13.928065
  C    -19.051697   -4.547526   13.909734
  O    -20.003646   -5.508532   14.009728
  C    -17.768953   -4.733738   13.527199
  H    -17.052403   -1.369217    7.832531
  H    -16.976394   -2.455564    6.437075
  H    -15.412689   -1.791586    7.130554
  H    -17.404147   -3.693650    8.484371
  H    -15.903643   -4.268280    7.743994
  H    -13.045974   -2.711211    9.635225
  H    -12.388168   -1.394433   10.500425
  H    -14.116875   -1.290302    9.824660
  H    -12.786244   -1.276077   12.845509
  H    -14.884932   -3.807196   15.077371
  H    -15.387744   -5.038156   13.019552
  H    -16.650143   -1.549135   13.427167
  H    -19.113969   -1.147492   13.845056
  H    -20.507512   -2.948935   14.143944
  H    -19.635190   -6.340830   13.665855
  H    -17.384165   -5.748676   13.492051

 Total Charge           Charge          ....    0
 Multiplicity           Mult            ....    1
 Number of Electrons    NEL             ....  154
 Basis Dimension        Dim             ....  828

ORBITAL ENERGIES
----------------

  NO   OCC          E(Eh)            E(eV)
   0   2.0000     -91.877761     -2500.1210
   1   2.0000     -20.617345      -561.0265
   2   2.0000     -20.590561      -560.2977
   3   2.0000     -20.553017      -559.2760
   4   2.0000     -15.629022      -425.2873
   5   2.0000     -15.604749      -424.6268
   6   2.0000     -11.404557      -310.3338
   7   2.0000     -11.376660      -309.5746
   8   2.0000     -11.336928      -308.4935
   9   2.0000     -11.312902      -307.8397
  10   2.0000     -11.295096      -307.3552
  11   2.0000     -11.292868      -307.2946
  12   2.0000     -11.267912      -306.6155
  13   2.0000     -11.261625      -306.4444
  14   2.0000     -11.249649      -306.1185
  15   2.0000     -11.241746      -305.9035
  16   2.0000     -11.234649      -305.7104
  17   2.0000     -11.230613      -305.6005
  18   2.0000     -11.224900      -305.4451
  19   2.0000     -11.222208      -305.3718
  20   2.0000      -8.881940      -241.6899
  21   2.0000      -6.563451      -178.6006
  22   2.0000      -6.561436      -178.5458
  23   2.0000      -6.560974      -178.5332
  24   2.0000      -1.445834       -39.3431
  25   2.0000      -1.408233       -38.3200
  26   2.0000      -1.354357       -36.8539
  27   2.0000      -1.351496       -36.7761
  28   2.0000      -1.256079       -34.1797
  29   2.0000      -1.168659       -31.8008
  30   2.0000      -1.117577       -30.4108
  31   2.0000      -1.050695       -28.5909
  32   2.0000      -1.042131       -28.3578
  33   2.0000      -1.022179       -27.8149
  34   2.0000      -1.001627       -27.2557
  35   2.0000      -0.971721       -26.4419
  36   2.0000      -0.921202       -25.0672
  37   2.0000      -0.888238       -24.1702
  38   2.0000      -0.855061       -23.2674
  39   2.0000      -0.853398       -23.2221
  40   2.0000      -0.823421       -22.4064
  41   2.0000      -0.810114       -22.0443
  42   2.0000      -0.758871       -20.6499
  43   2.0000      -0.742865       -20.2144
  44   2.0000      -0.736901       -20.0521
  45   2.0000      -0.703669       -19.1478
  46   2.0000      -0.685867       -18.6634
  47   2.0000      -0.681593       -18.5471
  48   2.0000      -0.669041       -18.2055
  49   2.0000      -0.659547       -17.9472
  50   2.0000      -0.648988       -17.6599
  51   2.0000      -0.641683       -17.4611
  52   2.0000      -0.640391       -17.4259
  53   2.0000      -0.618949       -16.8425
  54   2.0000      -0.605434       -16.4747
  55   2.0000      -0.600101       -16.3296
  56   2.0000      -0.596743       -16.2382
  57   2.0000      -0.583253       -15.8711
  58   2.0000      -0.574276       -15.6269
  59   2.0000      -0.569683       -15.5019
  60   2.0000      -0.560946       -15.2641
  61   2.0000      -0.548848       -14.9349
  62   2.0000      -0.540514       -14.7081
  63   2.0000      -0.527853       -14.3636
  64   2.0000      -0.515672       -14.0322
  65   2.0000      -0.510805       -13.8997
  66   2.0000      -0.501758       -13.6535
  67   2.0000      -0.492119       -13.3912
  68   2.0000      -0.488557       -13.2943
  69   2.0000      -0.472365       -12.8537
  70   2.0000      -0.463326       -12.6077
  71   2.0000      -0.451967       -12.2986
  72   2.0000      -0.345777        -9.4091
  73   2.0000      -0.339136        -9.2283
  74   2.0000      -0.328089        -8.9277
  75   2.0000      -0.315775        -8.5927
  76   2.0000      -0.305730        -8.3193
  77   0.0000       0.076957         2.0941
  78   0.0000       0.112397         3.0585
  79   0.0000       0.128660         3.5010
  80   0.0000       0.132471         3.6047
  81   0.0000       0.135856         3.6968

MULLIKEN ATOMIC CHARGES
-----------------------
   0 C :   -0.263537
   1 C :    0.022320
   2 O :   -0.348563
   3 C :    0.450926
   4 O :   -0.435339
   5 C :   -0.181719
   6 C :    0.116566
   7 C :   -0.297184
   8 N :   -0.134397
   9 C :    0.196097
  10 S :   -0.493129
  11 N :   -0.117859
  12 C :    0.027450
  13 C :   -0.028823
  14 C :   -0.186306
  15 C :   -0.150728
  16 C :   -0.181658
  17 C :    0.302279
  18 O :   -0.357708
  19 C :   -0.208069
  20 H :    0.108592
  21 H :    0.103169
  22 H :    0.096812
  23 H :    0.111338
  24 H :    0.108180
  25 H :    0.123322
  26 H :    0.115826
  27 H :    0.143520
  28 H :    0.198004
  29 H :    0.199887
  30 H :    0.141097
  31 H :    0.149580
  32 H :    0.154973
  33 H :    0.148259
  34 H :    0.243978
  35 H :    0.122844
Sum of atomic charges:   -0.0000000

LOEWDIN ATOMIC CHARGES
----------------------
   0 C :    0.120384
   1 C :    0.030043
   2 O :    0.280553
   3 C :   -0.379549
   4 O :    0.065441
   5 C :   -0.084350
   6 C :   -0.071622
   7 C :    0.130053
   8 N :    0.402485
   9 C :   -0.434109
  10 S :   -0.109482
  11 N :    0.427195
  12 C :   -0.095737
  13 C :   -0.049323
  14 C :    0.014965
  15 C :    0.037848
  16 C :    0.023466
  17 C :   -0.209816
  18 O :    0.395773
  19 C :    0.025716
  20 H :   -0.023761
  21 H :   -0.021672
  22 H :   -0.032427
  23 H :   -0.027755
  24 H :   -0.031325
  25 H :   -0.009595
  26 H :   -0.020406
  27 H :   -0.014467
  28 H :   -0.052564
  29 H :   -0.046994
  30 H :   -0.005191
  31 H :   -0.021940
  32 H :   -0.016030
  33 H :   -0.020808
  34 H :   -0.148438
  35 H :   -0.026562

  Mayer bond orders larger than 0.100000
B(  0-C ,  1-C ) :   0.9699 B(  0-C , 20-H ) :   0.9750 B(  0-C , 21-H ) :   0.9767
B(  0-C , 22-H ) :   0.9786 B(  1-C ,  2-O ) :   0.8747 B(  1-C , 23-H ) :   0.9811
B(  1-C , 24-H ) :   0.9721 B(  2-O ,  3-C ) :   1.1978 B(  3-C ,  4-O ) :   1.9711
B(  3-C ,  5-C ) :   1.0205 B(  5-C ,  6-C ) :   1.6674 B(  5-C , 12-C ) :   0.9750
B(  6-C ,  7-C ) :   0.9411 B(  6-C ,  8-N ) :   1.1374 B(  7-C , 25-H ) :   0.9711
B(  7-C , 26-H ) :   0.9858 B(  7-C , 27-H ) :   0.9627 B(  8-N ,  9-C ) :   1.2023
B(  8-N , 28-H ) :   0.9501 B(  9-C , 10-S ) :   1.5081 B(  9-C , 11-N ) :   1.3671
B( 11-N , 12-C ) :   1.0043 B( 11-N , 29-H ) :   0.9411 B( 12-C , 13-C ) :   0.9405
B( 12-C , 30-H ) :   1.0105 B( 13-C , 14-C ) :   1.4599 B( 13-C , 19-C ) :   1.2872
B( 14-C , 15-C ) :   1.3196 B( 14-C , 31-H ) :   0.9680 B( 15-C , 16-C ) :   1.4267
B( 15-C , 32-H ) :   0.9808 B( 16-C , 17-C ) :   1.2720 B( 16-C , 33-H ) :   0.9763
B( 17-C , 18-O ) :   1.1166 B( 17-C , 19-C ) :   1.4385 B( 18-O , 34-H ) :   0.9758
B( 19-C , 35-H ) :   0.9682

MP2 TOTAL ENERGY:    -1274.305933086 Eh
FINAL SINGLE POINT ENERGY     -1274.305933086149

DIPOLE MOMENT
-------------
                                X             Y             Z
Electronic contribution:      3.33885      -4.35331      17.40617
Nuclear contribution   :     -3.50933       4.47736     -20.27813
                        -----------------------------------------
Total Dipole Moment    :     -0.17047       0.12405      -2.87196
                        -----------------------------------------
Magnitude (a.u.)       :      2.87968
Magnitude (Debye)      :      7.31957

Rotational constants in cm-1:     0.009744     0.009563     0.005530
Rotational constants in MHz :   292.126158   286.696507   165.778066

                             ****ORCA TERMINATED NORMALLY****
TOTAL RUN TIME: 0 days 2 hours 0 minutes 52 seconds 803 msec
