                         Program Version 5.0.0 -  RELEASE  -
|  1> ! RI-MP2 cc-pVTZ cc-pVTZ/c TightSCF KeepDens NoKeepInts
|  2>
|  3> %pointcharges "srfp_output"
|  4>
|  5> *xyz  0  1
|  6>     C   -16.4367196   -2.1279441    7.3340740
|  7>     C   -16.3752573   -3.4075912    8.2338759
|  8>     O   -15.8220352   -3.0171988    9.5596505
|  9>     C   -15.7579959   -3.9722846   10.5300779
| 10>     O   -16.4199030   -5.0220209   10.6273166
| 11>     C   -14.8928977   -3.4830244   11.7232149
| 12>     C   -13.8986726   -2.5455074   11.5880732
| 13>     C   -13.3434038   -1.8986088   10.3093198
| 14>     N   -13.3865677   -2.0906947   12.8010511
| 15>     C   -13.7049561   -2.5938581   14.0279900
| 16>     S   -13.0881259   -2.0493889   15.5114444
| 17>     N   -14.6403251   -3.5223417   14.1366314
| 18>     C   -15.4520008   -3.9436502   13.0529995
| 19>     C   -16.8924228   -3.6415790   13.3390682
| 20>     C   -17.3442061   -2.3783662   13.5274584
| 21>     C   -18.6727741   -2.1398339   13.8453254
| 22>     C   -19.4829814   -3.2372558   13.9280649
| 23>     C   -19.0516971   -4.5475259   13.9097340
| 24>     O   -20.0036456   -5.5085316   14.0097280
| 25>     C   -17.7689533   -4.7337384   13.5271991
| 26>     H   -17.0524033   -1.3692166    7.8325315
| 27>     H   -16.9763943   -2.4555636    6.4370755
| 28>     H   -15.4126886   -1.7915864    7.1305540
| 29>     H   -17.4041474   -3.6936497    8.4843708
| 30>     H   -15.9036432   -4.2682805    7.7439944
| 31>     H   -13.0459742   -2.7112111    9.6352251
| 32>     H   -12.3881682   -1.3944330   10.5004250
| 33>     H   -14.1168748   -1.2903017    9.8246596
| 34>     H   -12.7862443   -1.2760772   12.8455087
| 35>     H   -14.8849315   -3.8071964   15.0773715
| 36>     H   -15.3877440   -5.0381556   13.0195521
| 37>     H   -16.6501430   -1.5491348   13.4271665
| 38>     H   -19.1139689   -1.1474916   13.8450564
| 39>     H   -20.5075122   -2.9489352   14.1439440
| 40>     H   -19.6351901   -6.3408304   13.6658555
| 41>     H   -17.3841648   -5.7486763   13.4920514
| 42> *
| 43>
| 44>                          ****END OF INPUT****

CARTESIAN COORDINATES (ANGSTROEM)
---------------------------------
  C    -16.436720   -2.127944    7.334074
  C    -16.375257   -3.407591    8.233876
  O    -15.822035   -3.017199    9.559651
  C    -15.757996   -3.972285   10.530078
  O    -16.419903   -5.022021   10.627317
  C    -14.892898   -3.483024   11.723215
  C    -13.898673   -2.545507   11.588073
  C    -13.343404   -1.898609   10.309320
  N    -13.386568   -2.090695   12.801051
  C    -13.704956   -2.593858   14.027990
  S    -13.088126   -2.049389   15.511444
  N    -14.640325   -3.522342   14.136631
  C    -15.452001   -3.943650   13.053000
  C    -16.892423   -3.641579   13.339068
  C    -17.344206   -2.378366   13.527458
  C    -18.672774   -2.139834   13.845325
  C    -19.482981   -3.237256   13.928065
  C    -19.051697   -4.547526   13.909734
  O    -20.003646   -5.508532   14.009728
  C    -17.768953   -4.733738   13.527199
  H    -17.052403   -1.369217    7.832531
  H    -16.976394   -2.455564    6.437075
  H    -15.412689   -1.791586    7.130554
  H    -17.404147   -3.693650    8.484371
  H    -15.903643   -4.268280    7.743994
  H    -13.045974   -2.711211    9.635225
  H    -12.388168   -1.394433   10.500425
  H    -14.116875   -1.290302    9.824660
  H    -12.786244   -1.276077   12.845509
  H    -14.884932   -3.807196   15.077371
  H    -15.387744   -5.038156   13.019552
  H    -16.650143   -1.549135   13.427167
  H    -19.113969   -1.147492   13.845056
  H    -20.507512   -2.948935   14.143944
  H    -19.635190   -6.340830   13.665855
  H    -17.384165   -5.748676   13.492051

 Total Charge           Charge          ....    0
 Multiplicity           Mult            ....    1
 Number of Electrons    NEL             ....  154
 Basis Dimension        Dim             ....  828

ORBITAL ENERGIES
----------------

  NO   OCC          E(Eh)            E(eV)
   0   2.0000     -90.643571     -2466.5370
   1   2.0000     -19.341796      -526.3170
   2   2.0000     -19.318001      -525.6695
   3   2.0000     -19.295457      -525.0561
   4   2.0000     -14.356092      -390.6491
   5   2.0000     -14.345235      -390.3537
   6   2.0000     -10.144939      -276.0578
   7   2.0000     -10.127209      -275.5754
   8   2.0000     -10.060593      -273.7627
   9   2.0000     -10.028495      -272.8892
  10   2.0000     -10.022783      -272.7338
  11   2.0000     -10.022550      -272.7274
  12   2.0000      -9.985831      -271.7283
  13   2.0000      -9.974851      -271.4295
  14   2.0000      -9.970947      -271.3233
  15   2.0000      -9.966972      -271.2151
  16   2.0000      -9.960716      -271.0449
  17   2.0000      -9.957149      -270.9478
  18   2.0000      -9.955335      -270.8984
  19   2.0000      -9.951980      -270.8072
  20   2.0000      -7.649365      -208.1498
  21   2.0000      -5.331291      -145.0718
  22   2.0000      -5.329321      -145.0182
  23   2.0000      -5.329001      -145.0095
  24   2.0000      -0.176081        -4.7914
  25   2.0000      -0.137454        -3.7403
  26   2.0000      -0.092289        -2.5113
  27   2.0000      -0.086951        -2.3661
  28   2.0000       0.013581         0.3696
  29   2.0000       0.096688         2.6310
  30   2.0000       0.151896         4.1333
  31   2.0000       0.224130         6.0989
  32   2.0000       0.244154         6.6438
  33   2.0000       0.245776         6.6879
  34   2.0000       0.275633         7.5003
  35   2.0000       0.288035         7.8378
  36   2.0000       0.347456         9.4548
  37   2.0000       0.393422        10.7056
  38   2.0000       0.411537        11.1985
  39   2.0000       0.415877        11.3166
  40   2.0000       0.450988        12.2720
  41   2.0000       0.459921        12.5151
  42   2.0000       0.512414        13.9435
  43   2.0000       0.525104        14.2888
  44   2.0000       0.534051        14.5323
  45   2.0000       0.564923        15.3723
  46   2.0000       0.577785        15.7223
  47   2.0000       0.598154        16.2766
  48   2.0000       0.599141        16.3035
  49   2.0000       0.611516        16.6402
  50   2.0000       0.621921        16.9233
  51   2.0000       0.626924        17.0595
  52   2.0000       0.636369        17.3165
  53   2.0000       0.659248        17.9390
  54   2.0000       0.665926        18.1208
  55   2.0000       0.674277        18.3480
  56   2.0000       0.682368        18.5682
  57   2.0000       0.697547        18.9812
  58   2.0000       0.703473        19.1425
  59   2.0000       0.711169        19.3519
  60   2.0000       0.720825        19.6146
  61   2.0000       0.729464        19.8497
  62   2.0000       0.738361        20.0918
  63   2.0000       0.746760        20.3204
  64   2.0000       0.752473        20.4758
  65   2.0000       0.759095        20.6560
  66   2.0000       0.769788        20.9470
  67   2.0000       0.771914        21.0048
  68   2.0000       0.775167        21.0934
  69   2.0000       0.800057        21.7707
  70   2.0000       0.803739        21.8709
  71   2.0000       0.811575        22.0841
  72   2.0000       0.905788        24.6477
  73   2.0000       0.913919        24.8690
  74   2.0000       0.925572        25.1861
  75   2.0000       0.934569        25.4309
  76   2.0000       0.944144        25.6915
  77   0.0000       1.342406        36.5287
  78   0.0000       1.395156        37.9641
  79   0.0000       1.405672        38.2503
  80   0.0000       1.416868        38.5549
  81   0.0000       1.425634        38.7935

MULLIKEN ATOMIC CHARGES
-----------------------
   0 C :   -0.262319
   1 C :    0.022300
   2 O :   -0.339815
   3 C :    0.513368
   4 O :   -0.573221
   5 C :   -0.188942
   6 C :    0.148067
   7 C :   -0.290870
   8 N :   -0.146262
   9 C :    0.336015
  10 S :   -0.763004
  11 N :   -0.137080
  12 C :    0.042842
  13 C :   -0.014717
  14 C :   -0.242874
  15 C :   -0.182969
  16 C :   -0.243534
  17 C :    0.331818
  18 O :   -0.449689
  19 C :   -0.275289
  20 H :    0.105891
  21 H :    0.113185
  22 H :    0.107827
  23 H :    0.103041
  24 H :    0.125623
  25 H :    0.136609
  26 H :    0.136721
  27 H :    0.144740
  28 H :    0.257525
  29 H :    0.252248
  30 H :    0.164167
  31 H :    0.189613
  32 H :    0.195287
  33 H :    0.171999
  34 H :    0.331181
  35 H :    0.180520
Sum of atomic charges:   -0.0000000

LOEWDIN ATOMIC CHARGES
----------------------
   0 C :    0.126339
   1 C :    0.035181
   2 O :    0.290142
   3 C :   -0.354147
   4 O :   -0.020335
   5 C :   -0.084955
   6 C :   -0.046409
   7 C :    0.141859
   8 N :    0.423640
   9 C :   -0.397697
  10 S :   -0.282197
  11 N :    0.448043
  12 C :   -0.088666
  13 C :   -0.056017
  14 C :    0.004400
  15 C :    0.029944
  16 C :    0.004520
  17 C :   -0.218760
  18 O :    0.361458
  19 C :    0.026713
  20 H :   -0.024104
  21 H :   -0.016684
  22 H :   -0.027807
  23 H :   -0.030522
  24 H :   -0.024529
  25 H :   -0.003058
  26 H :   -0.009935
  27 H :   -0.011264
  28 H :   -0.021151
  29 H :   -0.023305
  30 H :    0.001998
  31 H :   -0.013803
  32 H :   -0.005057
  33 H :   -0.015788
  34 H :   -0.105366
  35 H :   -0.012678

  Mayer bond orders larger than 0.100000
B(  0-C ,  1-C ) :   0.9720 B(  0-C , 20-H ) :   0.9745 B(  0-C , 21-H ) :   0.9747
B(  0-C , 22-H ) :   0.9772 B(  1-C ,  2-O ) :   0.8507 B(  1-C , 23-H ) :   0.9819
B(  1-C , 24-H ) :   0.9685 B(  2-O ,  3-C ) :   1.2462 B(  3-C ,  4-O ) :   1.8767
B(  3-C ,  5-C ) :   1.0627 B(  5-C ,  6-C ) :   1.6468 B(  5-C , 12-C ) :   0.9776
B(  6-C ,  7-C ) :   0.9430 B(  6-C ,  8-N ) :   1.1321 B(  7-C , 25-H ) :   0.9656
B(  7-C , 26-H ) :   0.9791 B(  7-C , 27-H ) :   0.9598 B(  8-N ,  9-C ) :   1.2970
B(  8-N , 28-H ) :   0.9219 B(  9-C , 10-S ) :   1.1924 B(  9-C , 11-N ) :   1.4503
B( 11-N , 12-C ) :   0.9879 B( 11-N , 29-H ) :   0.9226 B( 12-C , 13-C ) :   0.9300
B( 12-C , 30-H ) :   1.0080 B( 13-C , 14-C ) :   1.4272 B( 13-C , 19-C ) :   1.2371
B( 14-C , 15-C ) :   1.3218 B( 14-C , 31-H ) :   0.9609 B( 15-C , 16-C ) :   1.4198
B( 15-C , 32-H ) :   0.9670 B( 16-C , 17-C ) :   1.2472 B( 16-C , 33-H ) :   0.9669
B( 17-C , 18-O ) :   1.1199 B( 17-C , 19-C ) :   1.4501 B( 18-O , 34-H ) :   0.9091
B( 19-C , 35-H ) :   0.9590

MP2 TOTAL ENERGY:    -1274.436897943 Eh
FINAL SINGLE POINT ENERGY     -1274.436897942738

DIPOLE MOMENT
-------------
                                X             Y             Z
Electronic contribution:      3.60506      -4.35288      16.15067
Nuclear contribution   :     -3.50933       4.47736     -20.27813
                        -----------------------------------------
Total Dipole Moment    :      0.09573       0.12448      -4.12746
                        -----------------------------------------
Magnitude (a.u.)       :      4.13045
Magnitude (Debye)      :     10.49876

Rotational constants in cm-1:     0.009744     0.009563     0.005530
Rotational constants in MHz :   292.126158   286.696507   165.778066

                             ****ORCA TERMINATED NORMALLY****
TOTAL RUN TIME: 0 days 1 hours 55 minutes 21 seconds 76 msec
