                         Program Version 5.0.0 -  RELEASE  -
|  1> ! RI-MP2 cc-pVTZ cc-pVTZ/c TightSCF KeepDens NoKeepInts
|  2>
|  3> %pointcharges "srfp_output"
|  4>
|  5> *xyz  0  1
|  6>     C     9.0960864    6.1626631   11.6122974
|  7>     C     9.3009673    4.8197182   10.9000204
|  8>     O     8.0417038    4.1601317   10.9924112
|  9>     C     7.5655112    3.6380711   12.1528925
| 10>     O     8.2324703    3.5764234   13.1405413
| 11>     C     6.2159510    3.0317241   12.0337915
| 12>     C     5.4902314    2.8418274   10.8897898
| 13>     C     6.0402136    2.8299954    9.4724795
| 14>     N     4.1605813    2.6107249   10.9407357
| 15>     C     3.3712648    2.7409719   11.9846977
| 16>     S     1.7132916    2.4224506   11.8626883
| 17>     N     4.0668668    2.9697535   13.1858224
| 18>     C     5.5359918    2.7874003   13.3504797
| 19>     C     5.9288509    1.5079522   14.0063466
| 20>     C     6.1968064    1.4819202   15.4492774
| 21>     C     6.4956955    0.2121142   15.9975565
| 22>     C     6.4994740   -0.9759088   15.2581892
| 23>     C     6.2118680   -0.9094126   13.9028784
| 24>     O     6.2562258   -2.0261104   13.1103857
| 25>     C     5.8493873    0.2727179   13.3019821
| 26>     H     8.1198394    6.6316861   11.4386640
| 27>     H     9.8559212    6.9269333   11.4080399
| 28>     H     9.2081545    6.0485819   12.6974762
| 29>     H     9.5039355    4.9951971    9.8364412
| 30>     H    10.0912815    4.1467034   11.2544878
| 31>     H     5.4633890    2.4062298    8.6412838
| 32>     H     6.9666326    2.2480383    9.3933375
| 33>     H     6.2733908    3.8669390    9.2012488
| 34>     H     3.8099497    2.2889951   10.0465804
| 35>     H     3.4606696    2.8567348   13.9893883
| 36>     H     5.7164097    3.6281882   14.0314458
| 37>     H     6.1626354    2.4490605   15.9420938
| 38>     H     6.9251214    0.1631067   16.9938449
| 39>     H     6.6853701   -1.9152669   15.7704831
| 40>     H     6.1269031   -2.7488649   13.7488455
| 41>     H     5.6987092    0.2634850   12.2265255
| 42> *
| 43>
| 44>                          ****END OF INPUT****

CARTESIAN COORDINATES (ANGSTROEM)
---------------------------------
  C      9.096086    6.162663   11.612297
  C      9.300967    4.819718   10.900020
  O      8.041704    4.160132   10.992411
  C      7.565511    3.638071   12.152893
  O      8.232470    3.576423   13.140541
  C      6.215951    3.031724   12.033791
  C      5.490231    2.841827   10.889790
  C      6.040214    2.829995    9.472480
  N      4.160581    2.610725   10.940736
  C      3.371265    2.740972   11.984698
  S      1.713292    2.422451   11.862688
  N      4.066867    2.969753   13.185822
  C      5.535992    2.787400   13.350480
  C      5.928851    1.507952   14.006347
  C      6.196806    1.481920   15.449277
  C      6.495695    0.212114   15.997556
  C      6.499474   -0.975909   15.258189
  C      6.211868   -0.909413   13.902878
  O      6.256226   -2.026110   13.110386
  C      5.849387    0.272718   13.301982
  H      8.119839    6.631686   11.438664
  H      9.855921    6.926933   11.408040
  H      9.208154    6.048582   12.697476
  H      9.503935    4.995197    9.836441
  H     10.091281    4.146703   11.254488
  H      5.463389    2.406230    8.641284
  H      6.966633    2.248038    9.393337
  H      6.273391    3.866939    9.201249
  H      3.809950    2.288995   10.046580
  H      3.460670    2.856735   13.989388
  H      5.716410    3.628188   14.031446
  H      6.162635    2.449060   15.942094
  H      6.925121    0.163107   16.993845
  H      6.685370   -1.915267   15.770483
  H      6.126903   -2.748865   13.748845
  H      5.698709    0.263485   12.226525

 Total Charge           Charge          ....    0
 Multiplicity           Mult            ....    1
 Number of Electrons    NEL             ....  154
 Basis Dimension        Dim             ....  828

ORBITAL ENERGIES
----------------

  NO   OCC          E(Eh)            E(eV)
   0   2.0000     -94.472958     -2570.7399
   1   2.0000     -23.138090      -629.6194
   2   2.0000     -23.133407      -629.4920
   3   2.0000     -23.106649      -628.7639
   4   2.0000     -18.181306      -494.7385
   5   2.0000     -18.156991      -494.0768
   6   2.0000     -13.953829      -379.7030
   7   2.0000     -13.948278      -379.5519
   8   2.0000     -13.879812      -377.6889
   9   2.0000     -13.850495      -376.8911
  10   2.0000     -13.845913      -376.7664
  11   2.0000     -13.830546      -376.3483
  12   2.0000     -13.809178      -375.7668
  13   2.0000     -13.797153      -375.4396
  14   2.0000     -13.795718      -375.4006
  15   2.0000     -13.792724      -375.3191
  16   2.0000     -13.783350      -375.0640
  17   2.0000     -13.782168      -375.0319
  18   2.0000     -13.780250      -374.9797
  19   2.0000     -13.753407      -374.2492
  20   2.0000     -11.478156      -312.3365
  21   2.0000      -9.160022      -249.2569
  22   2.0000      -9.158125      -249.2052
  23   2.0000      -9.157714      -249.1941
  24   2.0000      -4.016283      -109.2886
  25   2.0000      -3.951551      -107.5272
  26   2.0000      -3.922216      -106.7289
  27   2.0000      -3.913783      -106.4995
  28   2.0000      -3.783583      -102.9565
  29   2.0000      -3.700657      -100.7000
  30   2.0000      -3.672170       -99.9248
  31   2.0000      -3.586621       -97.5969
  32   2.0000      -3.575668       -97.2989
  33   2.0000      -3.558564       -96.8335
  34   2.0000      -3.539958       -96.3272
  35   2.0000      -3.534411       -96.1762
  36   2.0000      -3.470333       -94.4325
  37   2.0000      -3.437761       -93.5462
  38   2.0000      -3.418048       -93.0098
  39   2.0000      -3.383204       -92.0617
  40   2.0000      -3.373115       -91.7871
  41   2.0000      -3.361213       -91.4633
  42   2.0000      -3.299938       -89.7959
  43   2.0000      -3.284202       -89.3677
  44   2.0000      -3.272242       -89.0422
  45   2.0000      -3.242205       -88.2249
  46   2.0000      -3.238456       -88.1229
  47   2.0000      -3.229369       -87.8756
  48   2.0000      -3.216286       -87.5196
  49   2.0000      -3.202720       -87.1505
  50   2.0000      -3.198150       -87.0261
  51   2.0000      -3.192907       -86.8834
  52   2.0000      -3.182603       -86.6030
  53   2.0000      -3.153599       -85.8138
  54   2.0000      -3.152960       -85.7964
  55   2.0000      -3.141588       -85.4870
  56   2.0000      -3.136820       -85.3572
  57   2.0000      -3.124199       -85.0138
  58   2.0000      -3.111877       -84.6785
  59   2.0000      -3.106121       -84.5218
  60   2.0000      -3.096427       -84.2580
  61   2.0000      -3.086770       -83.9953
  62   2.0000      -3.080349       -83.8206
  63   2.0000      -3.076387       -83.7127
  64   2.0000      -3.073132       -83.6242
  65   2.0000      -3.053767       -83.0972
  66   2.0000      -3.042954       -82.8030
  67   2.0000      -3.037385       -82.6514
  68   2.0000      -3.020347       -82.1878
  69   2.0000      -3.009763       -81.8998
  70   2.0000      -3.002835       -81.7113
  71   2.0000      -2.997499       -81.5661
  72   2.0000      -2.923037       -79.5399
  73   2.0000      -2.912699       -79.2586
  74   2.0000      -2.894304       -78.7580
  75   2.0000      -2.879746       -78.3619
  76   2.0000      -2.868028       -78.0430
  77   0.0000      -2.490962       -67.7825
  78   0.0000      -2.437032       -66.3150
  79   0.0000      -2.413977       -65.6877
  80   0.0000      -2.397706       -65.2449
  81   0.0000      -2.392368       -65.0996

MULLIKEN ATOMIC CHARGES
-----------------------
   0 C :   -0.315412
   1 C :    0.027927
   2 O :   -0.323737
   3 C :    0.471407
   4 O :   -0.555140
   5 C :   -0.183707
   6 C :    0.145615
   7 C :   -0.287787
   8 N :   -0.054110
   9 C :    0.344067
  10 S :   -0.721374
  11 N :   -0.258367
  12 C :    0.035806
  13 C :    0.040005
  14 C :   -0.203991
  15 C :   -0.173551
  16 C :   -0.271652
  17 C :    0.314833
  18 O :   -0.458552
  19 C :   -0.277946
  20 H :    0.111128
  21 H :    0.112633
  22 H :    0.098243
  23 H :    0.125287
  24 H :    0.117266
  25 H :    0.138131
  26 H :    0.127050
  27 H :    0.135957
  28 H :    0.259720
  29 H :    0.243379
  30 H :    0.175186
  31 H :    0.193855
  32 H :    0.187416
  33 H :    0.183629
  34 H :    0.324357
  35 H :    0.172428
Sum of atomic charges:    0.0000000

LOEWDIN ATOMIC CHARGES
----------------------
   0 C :    0.097683
   1 C :   -0.020464
   2 O :    0.336945
   3 C :   -0.440204
   4 O :    0.052992
   5 C :   -0.089929
   6 C :   -0.050981
   7 C :    0.137417
   8 N :    0.447983
   9 C :   -0.387189
  10 S :   -0.252479
  11 N :    0.401612
  12 C :   -0.070146
  13 C :   -0.028219
  14 C :    0.040337
  15 C :    0.024988
  16 C :    0.013543
  17 C :   -0.206279
  18 O :    0.344773
  19 C :    0.016856
  20 H :   -0.021871
  21 H :   -0.021861
  22 H :   -0.030141
  23 H :   -0.015923
  24 H :   -0.025786
  25 H :   -0.007283
  26 H :   -0.004559
  27 H :   -0.004985
  28 H :   -0.003613
  29 H :   -0.047328
  30 H :    0.001988
  31 H :   -0.024265
  32 H :   -0.014577
  33 H :   -0.012450
  34 H :   -0.114087
  35 H :   -0.022497

  Mayer bond orders larger than 0.100000
B(  0-C ,  1-C ) :   0.9586 B(  0-C , 20-H ) :   0.9734 B(  0-C , 21-H ) :   0.9760
B(  0-C , 22-H ) :   0.9777 B(  1-C ,  2-O ) :   0.8798 B(  1-C , 23-H ) :   0.9811
B(  1-C , 24-H ) :   0.9786 B(  2-O ,  3-C ) :   1.2133 B(  3-C ,  4-O ) :   1.9252
B(  3-C ,  5-C ) :   1.0945 B(  5-C ,  6-C ) :   1.6123 B(  5-C , 12-C ) :   0.9549
B(  6-C ,  7-C ) :   0.9716 B(  6-C ,  8-N ) :   1.1671 B(  7-C , 25-H ) :   0.9790
B(  7-C , 26-H ) :   0.9676 B(  7-C , 27-H ) :   0.9537 B(  8-N ,  9-C ) :   1.3234
B(  8-N , 28-H ) :   0.9166 B(  9-C , 10-S ) :   1.2416 B(  9-C , 11-N ) :   1.3620
B( 11-N , 12-C ) :   0.9345 B( 11-N , 29-H ) :   0.9304 B( 12-C , 13-C ) :   0.9500
B( 12-C , 30-H ) :   1.0031 B( 13-C , 14-C ) :   1.3436 B( 13-C , 19-C ) :   1.3460
B( 14-C , 15-C ) :   1.3936 B( 14-C , 31-H ) :   0.9565 B( 15-C , 16-C ) :   1.3380
B( 15-C , 32-H ) :   0.9627 B( 16-C , 17-C ) :   1.3491 B( 16-C , 33-H ) :   0.9675
B( 17-C , 18-O ) :   1.0850 B( 17-C , 19-C ) :   1.3703 B( 18-O , 34-H ) :   0.9217
B( 19-C , 35-H ) :   0.9542

MP2 TOTAL ENERGY:    -1274.432649559 Eh
FINAL SINGLE POINT ENERGY     -1274.432649558871

DIPOLE MOMENT
-------------
                                X             Y             Z
Electronic contribution:    -12.58437      -7.69297       3.48617
Nuclear contribution   :     15.11603       7.74932      -4.37648
                        -----------------------------------------
Total Dipole Moment    :      2.53166       0.05635      -0.89031
                        -----------------------------------------
Magnitude (a.u.)       :      2.68424
Magnitude (Debye)      :      6.82279

Rotational constants in cm-1:     0.010936     0.008190     0.005791
Rotational constants in MHz :   327.846477   245.537756   173.611653

                             ****ORCA TERMINATED NORMALLY****
TOTAL RUN TIME: 0 days 1 hours 54 minutes 17 seconds 389 msec
