                         Program Version 5.0.0 -  RELEASE  -
|  1> ! RI-MP2 cc-pVTZ cc-pVTZ/c TightSCF KeepDens NoKeepInts
|  2>
|  3> *xyz  0  1
|  4>     C     9.0960864    6.1626631   11.6122974
|  5>     C     9.3009673    4.8197182   10.9000204
|  6>     O     8.0417038    4.1601317   10.9924112
|  7>     C     7.5655112    3.6380711   12.1528925
|  8>     O     8.2324703    3.5764234   13.1405413
|  9>     C     6.2159510    3.0317241   12.0337915
| 10>     C     5.4902314    2.8418274   10.8897898
| 11>     C     6.0402136    2.8299954    9.4724795
| 12>     N     4.1605813    2.6107249   10.9407357
| 13>     C     3.3712648    2.7409719   11.9846977
| 14>     S     1.7132916    2.4224506   11.8626883
| 15>     N     4.0668668    2.9697535   13.1858224
| 16>     C     5.5359918    2.7874003   13.3504797
| 17>     C     5.9288509    1.5079522   14.0063466
| 18>     C     6.1968064    1.4819202   15.4492774
| 19>     C     6.4956955    0.2121142   15.9975565
| 20>     C     6.4994740   -0.9759088   15.2581892
| 21>     C     6.2118680   -0.9094126   13.9028784
| 22>     O     6.2562258   -2.0261104   13.1103857
| 23>     C     5.8493873    0.2727179   13.3019821
| 24>     H     8.1198394    6.6316861   11.4386640
| 25>     H     9.8559212    6.9269333   11.4080399
| 26>     H     9.2081545    6.0485819   12.6974762
| 27>     H     9.5039355    4.9951971    9.8364412
| 28>     H    10.0912815    4.1467034   11.2544878
| 29>     H     5.4633890    2.4062298    8.6412838
| 30>     H     6.9666326    2.2480383    9.3933375
| 31>     H     6.2733908    3.8669390    9.2012488
| 32>     H     3.8099497    2.2889951   10.0465804
| 33>     H     3.4606696    2.8567348   13.9893883
| 34>     H     5.7164097    3.6281882   14.0314458
| 35>     H     6.1626354    2.4490605   15.9420938
| 36>     H     6.9251214    0.1631067   16.9938449
| 37>     H     6.6853701   -1.9152669   15.7704831
| 38>     H     6.1269031   -2.7488649   13.7488455
| 39>     H     5.6987092    0.2634850   12.2265255
| 40> *
| 41>
| 42>                          ****END OF INPUT****

CARTESIAN COORDINATES (ANGSTROEM)
---------------------------------
  C      9.096086    6.162663   11.612297
  C      9.300967    4.819718   10.900020
  O      8.041704    4.160132   10.992411
  C      7.565511    3.638071   12.152893
  O      8.232470    3.576423   13.140541
  C      6.215951    3.031724   12.033791
  C      5.490231    2.841827   10.889790
  C      6.040214    2.829995    9.472480
  N      4.160581    2.610725   10.940736
  C      3.371265    2.740972   11.984698
  S      1.713292    2.422451   11.862688
  N      4.066867    2.969753   13.185822
  C      5.535992    2.787400   13.350480
  C      5.928851    1.507952   14.006347
  C      6.196806    1.481920   15.449277
  C      6.495695    0.212114   15.997556
  C      6.499474   -0.975909   15.258189
  C      6.211868   -0.909413   13.902878
  O      6.256226   -2.026110   13.110386
  C      5.849387    0.272718   13.301982
  H      8.119839    6.631686   11.438664
  H      9.855921    6.926933   11.408040
  H      9.208154    6.048582   12.697476
  H      9.503935    4.995197    9.836441
  H     10.091281    4.146703   11.254488
  H      5.463389    2.406230    8.641284
  H      6.966633    2.248038    9.393337
  H      6.273391    3.866939    9.201249
  H      3.809950    2.288995   10.046580
  H      3.460670    2.856735   13.989388
  H      5.716410    3.628188   14.031446
  H      6.162635    2.449060   15.942094
  H      6.925121    0.163107   16.993845
  H      6.685370   -1.915267   15.770483
  H      6.126903   -2.748865   13.748845
  H      5.698709    0.263485   12.226525

 Total Charge           Charge          ....    0
 Multiplicity           Mult            ....    1
 Number of Electrons    NEL             ....  154
 Basis Dimension        Dim             ....  828

ORBITAL ENERGIES
----------------

  NO   OCC          E(Eh)            E(eV)
   0   2.0000     -91.892433     -2500.5202
   1   2.0000     -20.594144      -560.3951
   2   2.0000     -20.591779      -560.3308
   3   2.0000     -20.541629      -558.9661
   4   2.0000     -15.634335      -425.4319
   5   2.0000     -15.602786      -424.5734
   6   2.0000     -11.386770      -309.8498
   7   2.0000     -11.385349      -309.8111
   8   2.0000     -11.336813      -308.4904
   9   2.0000     -11.304543      -307.6123
  10   2.0000     -11.300947      -307.5144
  11   2.0000     -11.299376      -307.4716
  12   2.0000     -11.262553      -306.4696
  13   2.0000     -11.259007      -306.3732
  14   2.0000     -11.252952      -306.2084
  15   2.0000     -11.252420      -306.1939
  16   2.0000     -11.245981      -306.0187
  17   2.0000     -11.239394      -305.8395
  18   2.0000     -11.233716      -305.6850
  19   2.0000     -11.225170      -305.4524
  20   2.0000      -8.895890      -242.0695
  21   2.0000      -6.577292      -178.9772
  22   2.0000      -6.575428      -178.9265
  23   2.0000      -6.574837      -178.9104
  24   2.0000      -1.461926       -39.7810
  25   2.0000      -1.408397       -38.3244
  26   2.0000      -1.366380       -37.1811
  27   2.0000      -1.364409       -37.1274
  28   2.0000      -1.234629       -33.5960
  29   2.0000      -1.151934       -31.3457
  30   2.0000      -1.124923       -30.6107
  31   2.0000      -1.043639       -28.3989
  32   2.0000      -1.036865       -28.2145
  33   2.0000      -1.011968       -27.5370
  34   2.0000      -0.999984       -27.2110
  35   2.0000      -0.977982       -26.6123
  36   2.0000      -0.925096       -25.1731
  37   2.0000      -0.899253       -24.4699
  38   2.0000      -0.865756       -23.5584
  39   2.0000      -0.839157       -22.8346
  40   2.0000      -0.827957       -22.5299
  41   2.0000      -0.815744       -22.1975
  42   2.0000      -0.751442       -20.4478
  43   2.0000      -0.735351       -20.0099
  44   2.0000      -0.727208       -19.7883
  45   2.0000      -0.698351       -19.0031
  46   2.0000      -0.685921       -18.6649
  47   2.0000      -0.680237       -18.5102
  48   2.0000      -0.668358       -18.1870
  49   2.0000      -0.658070       -17.9070
  50   2.0000      -0.651826       -17.7371
  51   2.0000      -0.651169       -17.7192
  52   2.0000      -0.638877       -17.3847
  53   2.0000      -0.611328       -16.6351
  54   2.0000      -0.606642       -16.5076
  55   2.0000      -0.600426       -16.3384
  56   2.0000      -0.594295       -16.1716
  57   2.0000      -0.579360       -15.7652
  58   2.0000      -0.566514       -15.4156
  59   2.0000      -0.565540       -15.3891
  60   2.0000      -0.561315       -15.2742
  61   2.0000      -0.547955       -14.9106
  62   2.0000      -0.537672       -14.6308
  63   2.0000      -0.532382       -14.4868
  64   2.0000      -0.521185       -14.1822
  65   2.0000      -0.511449       -13.9172
  66   2.0000      -0.496831       -13.5195
  67   2.0000      -0.490248       -13.3403
  68   2.0000      -0.473716       -12.8905
  69   2.0000      -0.460344       -12.5266
  70   2.0000      -0.456352       -12.4180
  71   2.0000      -0.445860       -12.1325
  72   2.0000      -0.357084        -9.7167
  73   2.0000      -0.343478        -9.3465
  74   2.0000      -0.326585        -8.8868
  75   2.0000      -0.320399        -8.7185
  76   2.0000      -0.312027        -8.4907
  77   0.0000       0.064716         1.7610
  78   0.0000       0.109229         2.9723
  79   0.0000       0.117726         3.2035
  80   0.0000       0.132246         3.5986
  81   0.0000       0.137753         3.7484

MULLIKEN ATOMIC CHARGES
-----------------------
   0 C :   -0.323769
   1 C :    0.031603
   2 O :   -0.342569
   3 C :    0.420445
   4 O :   -0.414053
   5 C :   -0.183523
   6 C :    0.119652
   7 C :   -0.293379
   8 N :   -0.041181
   9 C :    0.197298
  10 S :   -0.439889
  11 N :   -0.241861
  12 C :    0.016045
  13 C :    0.107242
  14 C :   -0.203565
  15 C :   -0.113106
  16 C :   -0.271306
  17 C :    0.302974
  18 O :   -0.368671
  19 C :   -0.245050
  20 H :    0.105060
  21 H :    0.099519
  22 H :    0.119735
  23 H :    0.101261
  24 H :    0.113597
  25 H :    0.111280
  26 H :    0.122474
  27 H :    0.131733
  28 H :    0.198071
  29 H :    0.186535
  30 H :    0.151541
  31 H :    0.159028
  32 H :    0.152124
  33 H :    0.138383
  34 H :    0.240291
  35 H :    0.156032
Sum of atomic charges:    0.0000000

LOEWDIN ATOMIC CHARGES
----------------------
   0 C :    0.094736
   1 C :   -0.027013
   2 O :    0.322007
   3 C :   -0.463068
   4 O :    0.142236
   5 C :   -0.091924
   6 C :   -0.075179
   7 C :    0.125450
   8 N :    0.428093
   9 C :   -0.427294
  10 S :   -0.071314
  11 N :    0.380429
  12 C :   -0.073966
  13 C :   -0.008194
  14 C :    0.043470
  15 C :    0.035420
  16 C :    0.002691
  17 C :   -0.196433
  18 O :    0.379188
  19 C :    0.027495
  20 H :   -0.024573
  21 H :   -0.028733
  22 H :   -0.023128
  23 H :   -0.025775
  24 H :   -0.026212
  25 H :   -0.020728
  26 H :   -0.008169
  27 H :   -0.009529
  28 H :   -0.034561
  29 H :   -0.074223
  30 H :   -0.005119
  31 H :   -0.033913
  32 H :   -0.023849
  33 H :   -0.029061
  34 H :   -0.153497
  35 H :   -0.025759

  Mayer bond orders larger than 0.100000
B(  0-C ,  1-C ) :   0.9636 B(  0-C , 20-H ) :   0.9758 B(  0-C , 21-H ) :   0.9785
B(  0-C , 22-H ) :   0.9734 B(  1-C ,  2-O ) :   0.9009 B(  1-C , 23-H ) :   0.9845
B(  1-C , 24-H ) :   0.9793 B(  2-O ,  3-C ) :   1.1612 B(  3-C ,  4-O ) :   2.0061
B(  3-C ,  5-C ) :   1.0649 B(  5-C ,  6-C ) :   1.6248 B(  5-C , 12-C ) :   0.9659
B(  6-C ,  7-C ) :   0.9713 B(  6-C ,  8-N ) :   1.1705 B(  7-C , 25-H ) :   0.9853
B(  7-C , 26-H ) :   0.9692 B(  7-C , 27-H ) :   0.9593 B(  8-N ,  9-C ) :   1.2326
B(  8-N , 28-H ) :   0.9459 B(  9-C , 10-S ) :   1.5675 B(  9-C , 11-N ) :   1.2740
B( 11-N , 12-C ) :   0.9452 B( 11-N , 29-H ) :   0.9573 B( 12-C , 13-C ) :   0.9653
B( 12-C , 30-H ) :   1.0059 B( 13-C , 14-C ) :   1.3380 B( 13-C , 19-C ) :   1.3479
B( 14-C , 15-C ) :   1.4106 B( 14-C , 31-H ) :   0.9677 B( 15-C , 16-C ) :   1.3566
B( 15-C , 32-H ) :   0.9710 B( 16-C , 17-C ) :   1.3506 B( 16-C , 33-H ) :   0.9817
B( 17-C , 18-O ) :   1.0878 B( 17-C , 19-C ) :   1.3717 B( 18-O , 34-H ) :   0.9821
B( 19-C , 35-H ) :   0.9613

MP2 TOTAL ENERGY:    -1274.307031894 Eh
FINAL SINGLE POINT ENERGY     -1274.307031894342

DIPOLE MOMENT
-------------
                                X             Y             Z
Electronic contribution:    -13.46037      -7.78275       3.83946
Nuclear contribution   :     15.11603       7.74932      -4.37648
                        -----------------------------------------
Total Dipole Moment    :      1.65566      -0.03342      -0.53702
                        -----------------------------------------
Magnitude (a.u.)       :      1.74090
Magnitude (Debye)      :      4.42501

Rotational constants in cm-1:     0.010936     0.008190     0.005791
Rotational constants in MHz :   327.846477   245.537756   173.611653

                             ****ORCA TERMINATED NORMALLY****
TOTAL RUN TIME: 0 days 1 hours 51 minutes 7 seconds 66 msec
