                         Program Version 5.0.0 -  RELEASE  -
|  1> ! RI-MP2 cc-pVTZ cc-pVTZ/c TightSCF KeepDens NoKeepInts
|  2>
|  3> *xyz  0  1
|  4>     C     9.8692839    9.7217722   -7.9589633
|  5>     C     9.3843476    9.1062427   -6.6472808
|  6>     O     9.3204247    7.7035314   -6.7606842
|  7>     C     8.4418680    7.0467722   -5.9842966
|  8>     O     7.7336510    7.5952845   -5.1763893
|  9>     C     8.2715922    5.6033182   -6.2917488
| 10>     C     7.5056150    4.7382695   -5.6224025
| 11>     C     6.9311986    4.9967580   -4.2319788
| 12>     N     7.5305179    3.3149073   -5.8722968
| 13>     C     8.3359130    2.8038913   -6.8370192
| 14>     S     8.6699234    1.2026771   -6.7573074
| 15>     N     9.0704495    3.6809243   -7.5727648
| 16>     C     9.0123739    5.1092668   -7.5294292
| 17>     C     8.4355916    5.5635660   -8.8656696
| 18>     C     9.2424920    6.2753924   -9.7460599
| 19>     C     8.6982061    6.7065482  -11.0118456
| 20>     C     7.3366081    6.4826863  -11.4003324
| 21>     C     6.5489753    5.7377628  -10.4758244
| 22>     O     5.2972126    5.3968903  -10.8672473
| 23>     C     7.0966506    5.3491881   -9.2781852
| 24>     H     9.0623845   10.1630514   -8.5567670
| 25>     H    10.3982972    9.0567663   -8.6525783
| 26>     H    10.4794579   10.5905097   -7.6829504
| 27>     H    10.1593882    9.2868113   -5.8923642
| 28>     H     8.4736702    9.6581240   -6.3840636
| 29>     H     6.4981845    4.1568815   -3.6749424
| 30>     H     6.1216403    5.7364563   -4.2575003
| 31>     H     7.6021428    5.4821958   -3.5126870
| 32>     H     7.1287252    2.6793684   -5.1936073
| 33>     H     9.8142800    3.2546107   -8.1121528
| 34>     H    10.0042167    5.5629963   -7.4129078
| 35>     H    10.2797563    6.4227466   -9.4601134
| 36>     H     9.3899798    7.1578849  -11.7169272
| 37>     H     6.9969514    6.6188838  -12.4228226
| 38>     H     4.7550040    5.0994640  -10.1160637
| 39>     H     6.4529948    4.8438318   -8.5642396
| 40> *
| 41>
| 42>                          ****END OF INPUT****

CARTESIAN COORDINATES (ANGSTROEM)
---------------------------------
  C      9.869284    9.721772   -7.958963
  C      9.384348    9.106243   -6.647281
  O      9.320425    7.703531   -6.760684
  C      8.441868    7.046772   -5.984297
  O      7.733651    7.595284   -5.176389
  C      8.271592    5.603318   -6.291749
  C      7.505615    4.738270   -5.622402
  C      6.931199    4.996758   -4.231979
  N      7.530518    3.314907   -5.872297
  C      8.335913    2.803891   -6.837019
  S      8.669923    1.202677   -6.757307
  N      9.070450    3.680924   -7.572765
  C      9.012374    5.109267   -7.529429
  C      8.435592    5.563566   -8.865670
  C      9.242492    6.275392   -9.746060
  C      8.698206    6.706548  -11.011846
  C      7.336608    6.482686  -11.400332
  C      6.548975    5.737763  -10.475824
  O      5.297213    5.396890  -10.867247
  C      7.096651    5.349188   -9.278185
  H      9.062384   10.163051   -8.556767
  H     10.398297    9.056766   -8.652578
  H     10.479458   10.590510   -7.682950
  H     10.159388    9.286811   -5.892364
  H      8.473670    9.658124   -6.384064
  H      6.498184    4.156881   -3.674942
  H      6.121640    5.736456   -4.257500
  H      7.602143    5.482196   -3.512687
  H      7.128725    2.679368   -5.193607
  H      9.814280    3.254611   -8.112153
  H     10.004217    5.562996   -7.412908
  H     10.279756    6.422747   -9.460113
  H      9.389980    7.157885  -11.716927
  H      6.996951    6.618884  -12.422823
  H      4.755004    5.099464  -10.116064
  H      6.452995    4.843832   -8.564240

 Total Charge           Charge          ....    0
 Multiplicity           Mult            ....    1
 Number of Electrons    NEL             ....  154
 Basis Dimension        Dim             ....  828

ORBITAL ENERGIES
----------------

  NO   OCC          E(Eh)            E(eV)
   0   2.0000     -91.885529     -2500.3324
   1   2.0000     -20.617140      -561.0209
   2   2.0000     -20.595213      -560.4243
   3   2.0000     -20.545673      -559.0762
   4   2.0000     -15.628974      -425.2860
   5   2.0000     -15.609894      -424.7668
   6   2.0000     -11.396475      -310.1138
   7   2.0000     -11.380597      -309.6818
   8   2.0000     -11.337893      -308.5198
   9   2.0000     -11.312880      -307.8391
  10   2.0000     -11.307124      -307.6825
  11   2.0000     -11.298286      -307.4420
  12   2.0000     -11.262638      -306.4720
  13   2.0000     -11.259862      -306.3964
  14   2.0000     -11.258084      -306.3480
  15   2.0000     -11.249886      -306.1250
  16   2.0000     -11.246086      -306.0216
  17   2.0000     -11.239706      -305.8479
  18   2.0000     -11.235901      -305.7444
  19   2.0000     -11.229279      -305.5642
  20   2.0000      -8.891664      -241.9545
  21   2.0000      -6.573337      -178.8696
  22   2.0000      -6.571201      -178.8115
  23   2.0000      -6.570624      -178.7958
  24   2.0000      -1.478847       -40.2415
  25   2.0000      -1.412305       -38.4308
  26   2.0000      -1.373448       -37.3734
  27   2.0000      -1.344847       -36.5952
  28   2.0000      -1.243672       -33.8420
  29   2.0000      -1.155405       -31.4402
  30   2.0000      -1.127074       -30.6692
  31   2.0000      -1.051552       -28.6142
  32   2.0000      -1.040511       -28.3138
  33   2.0000      -1.007905       -27.4265
  34   2.0000      -0.998507       -27.1708
  35   2.0000      -0.989230       -26.9183
  36   2.0000      -0.926800       -25.2195
  37   2.0000      -0.900984       -24.5170
  38   2.0000      -0.848109       -23.0782
  39   2.0000      -0.843902       -22.9637
  40   2.0000      -0.825550       -22.4643
  41   2.0000      -0.815218       -22.1832
  42   2.0000      -0.776589       -21.1320
  43   2.0000      -0.742534       -20.2054
  44   2.0000      -0.735821       -20.0227
  45   2.0000      -0.703920       -19.1546
  46   2.0000      -0.695919       -18.9369
  47   2.0000      -0.692611       -18.8469
  48   2.0000      -0.682378       -18.5685
  49   2.0000      -0.665667       -18.1137
  50   2.0000      -0.661272       -17.9941
  51   2.0000      -0.645890       -17.5756
  52   2.0000      -0.629781       -17.1372
  53   2.0000      -0.604639       -16.4531
  54   2.0000      -0.600300       -16.3350
  55   2.0000      -0.597197       -16.2506
  56   2.0000      -0.589382       -16.0379
  57   2.0000      -0.584066       -15.8932
  58   2.0000      -0.571089       -15.5401
  59   2.0000      -0.565546       -15.3893
  60   2.0000      -0.560981       -15.2651
  61   2.0000      -0.555549       -15.1173
  62   2.0000      -0.534521       -14.5451
  63   2.0000      -0.527273       -14.3478
  64   2.0000      -0.524143       -14.2627
  65   2.0000      -0.510759       -13.8985
  66   2.0000      -0.500206       -13.6113
  67   2.0000      -0.495452       -13.4819
  68   2.0000      -0.484490       -13.1836
  69   2.0000      -0.462396       -12.5824
  70   2.0000      -0.459239       -12.4965
  71   2.0000      -0.452310       -12.3080
  72   2.0000      -0.365411        -9.9433
  73   2.0000      -0.343393        -9.3442
  74   2.0000      -0.327140        -8.9019
  75   2.0000      -0.322186        -8.7671
  76   2.0000      -0.316232        -8.6051
  77   0.0000       0.071546         1.9469
  78   0.0000       0.105706         2.8764
  79   0.0000       0.120463         3.2780
  80   0.0000       0.131108         3.5676
  81   0.0000       0.139011         3.7827

MULLIKEN ATOMIC CHARGES
-----------------------
   0 C :   -0.291213
   1 C :    0.042888
   2 O :   -0.311829
   3 C :    0.423822
   4 O :   -0.419423
   5 C :   -0.172601
   6 C :    0.169877
   7 C :   -0.308518
   8 N :   -0.141081
   9 C :    0.193519
  10 S :   -0.451941
  11 N :   -0.182351
  12 C :    0.028637
  13 C :    0.071395
  14 C :   -0.209736
  15 C :   -0.119712
  16 C :   -0.233574
  17 C :    0.301579
  18 O :   -0.356190
  19 C :   -0.292827
  20 H :    0.098827
  21 H :    0.100933
  22 H :    0.097516
  23 H :    0.079730
  24 H :    0.109814
  25 H :    0.100126
  26 H :    0.130981
  27 H :    0.130876
  28 H :    0.210665
  29 H :    0.191230
  30 H :    0.153645
  31 H :    0.156722
  32 H :    0.158892
  33 H :    0.170363
  34 H :    0.244164
  35 H :    0.124795
Sum of atomic charges:    0.0000000

LOEWDIN ATOMIC CHARGES
----------------------
   0 C :    0.105047
   1 C :   -0.036790
   2 O :    0.350809
   3 C :   -0.445655
   4 O :    0.124484
   5 C :   -0.089794
   6 C :   -0.038617
   7 C :    0.118575
   8 N :    0.394437
   9 C :   -0.485360
  10 S :   -0.025211
  11 N :    0.412161
  12 C :   -0.076731
  13 C :   -0.039016
  14 C :    0.013932
  15 C :    0.055003
  16 C :    0.033509
  17 C :   -0.199373
  18 O :    0.394813
  19 C :   -0.000531
  20 H :   -0.025718
  21 H :   -0.028241
  22 H :   -0.022363
  23 H :   -0.030596
  24 H :   -0.021305
  25 H :   -0.024841
  26 H :   -0.009449
  27 H :   -0.006461
  28 H :   -0.055784
  29 H :   -0.055237
  30 H :   -0.007075
  31 H :   -0.034871
  32 H :   -0.030717
  33 H :   -0.028150
  34 H :   -0.148714
  35 H :   -0.036169

  Mayer bond orders larger than 0.100000
B(  0-C ,  1-C ) :   0.9433 B(  0-C , 20-H ) :   0.9843 B(  0-C , 21-H ) :   0.9751
B(  0-C , 22-H ) :   0.9837 B(  1-C ,  2-O ) :   0.9085 B(  1-C , 23-H ) :   0.9940
B(  1-C , 24-H ) :   0.9742 B(  2-O ,  3-C ) :   1.1962 B(  3-C ,  4-O ) :   1.9833
B(  3-C ,  5-C ) :   1.0413 B(  5-C ,  6-C ) :   1.7106 B(  5-C , 12-C ) :   0.9619
B(  6-C ,  7-C ) :   0.9633 B(  6-C ,  8-N ) :   1.1092 B(  7-C , 25-H ) :   0.9928
B(  7-C , 26-H ) :   0.9615 B(  7-C , 27-H ) :   0.9604 B(  8-N ,  9-C ) :   1.2062
B(  8-N , 28-H ) :   0.9398 B(  9-C , 10-S ) :   1.6027 B(  9-C , 11-N ) :   1.3086
B( 11-N , 12-C ) :   0.9847 B( 11-N , 29-H ) :   0.9551 B( 12-C , 13-C ) :   0.9557
B( 12-C , 30-H ) :   0.9944 B( 13-C , 14-C ) :   1.4166 B( 13-C , 19-C ) :   1.2986
B( 14-C , 15-C ) :   1.3243 B( 14-C , 31-H ) :   0.9656 B( 15-C , 16-C ) :   1.4390
B( 15-C , 32-H ) :   0.9721 B( 16-C , 17-C ) :   1.3011 B( 16-C , 33-H ) :   0.9630
B( 17-C , 18-O ) :   1.1074 B( 17-C , 19-C ) :   1.4219 B( 18-O , 34-H ) :   0.9755
B( 19-C , 35-H ) :   0.9665

MP2 TOTAL ENERGY:    -1274.305961307 Eh
FINAL SINGLE POINT ENERGY     -1274.305961306801

DIPOLE MOMENT
-------------
                                X             Y             Z
Electronic contribution:     -2.73747     -15.71510      -0.38919
Nuclear contribution   :      2.83541      17.34200       0.70967
                        -----------------------------------------
Total Dipole Moment    :      0.09794       1.62690       0.32048
                        -----------------------------------------
Magnitude (a.u.)       :      1.66105
Magnitude (Debye)      :      4.22206

Rotational constants in cm-1:     0.011211     0.008653     0.006064
Rotational constants in MHz :   336.096799   259.402030   181.792935

                             ****ORCA TERMINATED NORMALLY****
TOTAL RUN TIME: 0 days 2 hours 9 minutes 31 seconds 456 msec
