                         Program Version 5.0.0 -  RELEASE  -
|  1> ! RI-MP2 cc-pVTZ cc-pVTZ/c TightSCF KeepDens NoKeepInts
|  2>
|  3> %pointcharges "srfp_output"
|  4>
|  5> *xyz  0  1
|  6>     C     9.8692839    9.7217722   -7.9589633
|  7>     C     9.3843476    9.1062427   -6.6472808
|  8>     O     9.3204247    7.7035314   -6.7606842
|  9>     C     8.4418680    7.0467722   -5.9842966
| 10>     O     7.7336510    7.5952845   -5.1763893
| 11>     C     8.2715922    5.6033182   -6.2917488
| 12>     C     7.5056150    4.7382695   -5.6224025
| 13>     C     6.9311986    4.9967580   -4.2319788
| 14>     N     7.5305179    3.3149073   -5.8722968
| 15>     C     8.3359130    2.8038913   -6.8370192
| 16>     S     8.6699234    1.2026771   -6.7573074
| 17>     N     9.0704495    3.6809243   -7.5727648
| 18>     C     9.0123739    5.1092668   -7.5294292
| 19>     C     8.4355916    5.5635660   -8.8656696
| 20>     C     9.2424920    6.2753924   -9.7460599
| 21>     C     8.6982061    6.7065482  -11.0118456
| 22>     C     7.3366081    6.4826863  -11.4003324
| 23>     C     6.5489753    5.7377628  -10.4758244
| 24>     O     5.2972126    5.3968903  -10.8672473
| 25>     C     7.0966506    5.3491881   -9.2781852
| 26>     H     9.0623845   10.1630514   -8.5567670
| 27>     H    10.3982972    9.0567663   -8.6525783
| 28>     H    10.4794579   10.5905097   -7.6829504
| 29>     H    10.1593882    9.2868113   -5.8923642
| 30>     H     8.4736702    9.6581240   -6.3840636
| 31>     H     6.4981845    4.1568815   -3.6749424
| 32>     H     6.1216403    5.7364563   -4.2575003
| 33>     H     7.6021428    5.4821958   -3.5126870
| 34>     H     7.1287252    2.6793684   -5.1936073
| 35>     H     9.8142800    3.2546107   -8.1121528
| 36>     H    10.0042167    5.5629963   -7.4129078
| 37>     H    10.2797563    6.4227466   -9.4601134
| 38>     H     9.3899798    7.1578849  -11.7169272
| 39>     H     6.9969514    6.6188838  -12.4228226
| 40>     H     4.7550040    5.0994640  -10.1160637
| 41>     H     6.4529948    4.8438318   -8.5642396
| 42> *
| 43>
| 44>                          ****END OF INPUT****

CARTESIAN COORDINATES (ANGSTROEM)
---------------------------------
  C      9.869284    9.721772   -7.958963
  C      9.384348    9.106243   -6.647281
  O      9.320425    7.703531   -6.760684
  C      8.441868    7.046772   -5.984297
  O      7.733651    7.595284   -5.176389
  C      8.271592    5.603318   -6.291749
  C      7.505615    4.738270   -5.622402
  C      6.931199    4.996758   -4.231979
  N      7.530518    3.314907   -5.872297
  C      8.335913    2.803891   -6.837019
  S      8.669923    1.202677   -6.757307
  N      9.070450    3.680924   -7.572765
  C      9.012374    5.109267   -7.529429
  C      8.435592    5.563566   -8.865670
  C      9.242492    6.275392   -9.746060
  C      8.698206    6.706548  -11.011846
  C      7.336608    6.482686  -11.400332
  C      6.548975    5.737763  -10.475824
  O      5.297213    5.396890  -10.867247
  C      7.096651    5.349188   -9.278185
  H      9.062384   10.163051   -8.556767
  H     10.398297    9.056766   -8.652578
  H     10.479458   10.590510   -7.682950
  H     10.159388    9.286811   -5.892364
  H      8.473670    9.658124   -6.384064
  H      6.498184    4.156881   -3.674942
  H      6.121640    5.736456   -4.257500
  H      7.602143    5.482196   -3.512687
  H      7.128725    2.679368   -5.193607
  H      9.814280    3.254611   -8.112153
  H     10.004217    5.562996   -7.412908
  H     10.279756    6.422747   -9.460113
  H      9.389980    7.157885  -11.716927
  H      6.996951    6.618884  -12.422823
  H      4.755004    5.099464  -10.116064
  H      6.452995    4.843832   -8.564240

 Total Charge           Charge          ....    0
 Multiplicity           Mult            ....    1
 Number of Electrons    NEL             ....  154
 Basis Dimension        Dim             ....  828

ORBITAL ENERGIES
----------------

  NO   OCC          E(Eh)            E(eV)
   0   2.0000     -91.377633     -2486.5118
   1   2.0000     -20.105065      -547.0866
   2   2.0000     -20.073768      -546.2350
   3   2.0000     -20.046709      -545.4987
   4   2.0000     -15.103865      -410.9970
   5   2.0000     -15.088141      -410.5692
   6   2.0000     -10.895279      -296.4756
   7   2.0000     -10.868572      -295.7489
   8   2.0000     -10.817755      -294.3661
   9   2.0000     -10.796942      -293.7997
  10   2.0000     -10.784070      -293.4495
  11   2.0000     -10.772559      -293.1362
  12   2.0000     -10.741783      -292.2988
  13   2.0000     -10.741060      -292.2791
  14   2.0000     -10.740385      -292.2607
  15   2.0000     -10.730724      -291.9979
  16   2.0000     -10.720611      -291.7227
  17   2.0000     -10.718029      -291.6524
  18   2.0000     -10.717596      -291.6406
  19   2.0000     -10.696558      -291.0681
  20   2.0000      -8.384957      -228.1663
  21   2.0000      -6.066937      -165.0897
  22   2.0000      -6.064782      -165.0311
  23   2.0000      -6.064311      -165.0183
  24   2.0000      -0.971044       -26.4235
  25   2.0000      -0.893136       -24.3035
  26   2.0000      -0.872349       -23.7378
  27   2.0000      -0.822782       -22.3890
  28   2.0000      -0.719297       -19.5731
  29   2.0000      -0.638498       -17.3744
  30   2.0000      -0.609276       -16.5792
  31   2.0000      -0.527532       -14.3549
  32   2.0000      -0.522014       -14.2047
  33   2.0000      -0.490451       -13.3459
  34   2.0000      -0.477506       -12.9936
  35   2.0000      -0.470860       -12.8127
  36   2.0000      -0.405901       -11.0451
  37   2.0000      -0.379201       -10.3186
  38   2.0000      -0.327858        -8.9215
  39   2.0000      -0.321815        -8.7570
  40   2.0000      -0.304476        -8.2852
  41   2.0000      -0.296837        -8.0773
  42   2.0000      -0.260959        -7.1011
  43   2.0000      -0.222311        -6.0494
  44   2.0000      -0.216867        -5.9013
  45   2.0000      -0.192104        -5.2274
  46   2.0000      -0.181027        -4.9260
  47   2.0000      -0.179394        -4.8816
  48   2.0000      -0.159984        -4.3534
  49   2.0000      -0.149450        -4.0667
  50   2.0000      -0.140879        -3.8335
  51   2.0000      -0.121586        -3.3085
  52   2.0000      -0.110886        -3.0174
  53   2.0000      -0.089119        -2.4250
  54   2.0000      -0.082238        -2.2378
  55   2.0000      -0.076847        -2.0911
  56   2.0000      -0.073141        -1.9903
  57   2.0000      -0.062251        -1.6939
  58   2.0000      -0.054445        -1.4815
  59   2.0000      -0.038814        -1.0562
  60   2.0000      -0.034732        -0.9451
  61   2.0000      -0.028423        -0.7734
  62   2.0000      -0.013643        -0.3713
  63   2.0000      -0.007696        -0.2094
  64   2.0000      -0.005909        -0.1608
  65   2.0000      -0.003024        -0.0823
  66   2.0000       0.021851         0.5946
  67   2.0000       0.023322         0.6346
  68   2.0000       0.031908         0.8683
  69   2.0000       0.049883         1.3574
  70   2.0000       0.055324         1.5055
  71   2.0000       0.064244         1.7482
  72   2.0000       0.154029         4.1914
  73   2.0000       0.167345         4.5537
  74   2.0000       0.179118         4.8741
  75   2.0000       0.189577         5.1587
  76   2.0000       0.192263         5.2317
  77   0.0000       0.586626        15.9629
  78   0.0000       0.622241        16.9320
  79   0.0000       0.652686        17.7605
  80   0.0000       0.660419        17.9709
  81   0.0000       0.668733        18.1971

MULLIKEN ATOMIC CHARGES
-----------------------
   0 C :   -0.299440
   1 C :    0.022368
   2 O :   -0.302428
   3 C :    0.454097
   4 O :   -0.534718
   5 C :   -0.181782
   6 C :    0.184030
   7 C :   -0.301412
   8 N :   -0.152278
   9 C :    0.273383
  10 S :   -0.610952
  11 N :   -0.203516
  12 C :    0.062296
  13 C :    0.025867
  14 C :   -0.211852
  15 C :   -0.134095
  16 C :   -0.272514
  17 C :    0.248254
  18 O :   -0.432307
  19 C :   -0.321561
  20 H :    0.102969
  21 H :    0.111825
  22 H :    0.111509
  23 H :    0.102599
  24 H :    0.112044
  25 H :    0.132771
  26 H :    0.121274
  27 H :    0.126992
  28 H :    0.268181
  29 H :    0.243766
  30 H :    0.175122
  31 H :    0.194406
  32 H :    0.192785
  33 H :    0.186907
  34 H :    0.330673
  35 H :    0.174735
Sum of atomic charges:    0.0000000

LOEWDIN ATOMIC CHARGES
----------------------
   0 C :    0.108389
   1 C :   -0.038173
   2 O :    0.358360
   3 C :   -0.431425
   4 O :    0.045763
   5 C :   -0.093449
   6 C :   -0.021307
   7 C :    0.126323
   8 N :    0.411614
   9 C :   -0.461320
  10 S :   -0.131583
  11 N :    0.425712
  12 C :   -0.068830
  13 C :   -0.048488
  14 C :    0.019693
  15 C :    0.053586
  16 C :    0.011880
  17 C :   -0.227844
  18 O :    0.363294
  19 C :   -0.005408
  20 H :   -0.024057
  21 H :   -0.025617
  22 H :   -0.015761
  23 H :   -0.024438
  24 H :   -0.022190
  25 H :   -0.010004
  26 H :   -0.012149
  27 H :   -0.007764
  28 H :   -0.028117
  29 H :   -0.031277
  30 H :    0.001449
  31 H :   -0.021579
  32 H :   -0.020214
  33 H :   -0.026280
  34 H :   -0.106417
  35 H :   -0.022373

  Mayer bond orders larger than 0.100000
B(  0-C ,  1-C ) :   0.9461 B(  0-C , 20-H ) :   0.9824 B(  0-C , 21-H ) :   0.9729
B(  0-C , 22-H ) :   0.9812 B(  1-C ,  2-O ) :   0.8916 B(  1-C , 23-H ) :   0.9890
B(  1-C , 24-H ) :   0.9735 B(  2-O ,  3-C ) :   1.2315 B(  3-C ,  4-O ) :   1.9278
B(  3-C ,  5-C ) :   1.0647 B(  5-C ,  6-C ) :   1.6744 B(  5-C , 12-C ) :   0.9599
B(  6-C ,  7-C ) :   0.9570 B(  6-C ,  8-N ) :   1.1240 B(  7-C , 25-H ) :   0.9879
B(  7-C , 26-H ) :   0.9604 B(  7-C , 27-H ) :   0.9625 B(  8-N ,  9-C ) :   1.2543
B(  8-N , 28-H ) :   0.9143 B(  9-C , 10-S ) :   1.4522 B(  9-C , 11-N ) :   1.3719
B( 11-N , 12-C ) :   0.9778 B( 11-N , 29-H ) :   0.9300 B( 12-C , 13-C ) :   0.9483
B( 12-C , 30-H ) :   0.9891 B( 13-C , 14-C ) :   1.4065 B( 13-C , 19-C ) :   1.2524
B( 14-C , 15-C ) :   1.3290 B( 14-C , 31-H ) :   0.9552 B( 15-C , 16-C ) :   1.4205
B( 15-C , 32-H ) :   0.9605 B( 16-C , 17-C ) :   1.3009 B( 16-C , 33-H ) :   0.9561
B( 17-C , 18-O ) :   1.1284 B( 17-C , 19-C ) :   1.4343 B( 18-O , 34-H ) :   0.9068
B( 19-C , 35-H ) :   0.9615

MP2 TOTAL ENERGY:    -1274.406561270 Eh
FINAL SINGLE POINT ENERGY     -1274.406561270004

DIPOLE MOMENT
-------------
                                X             Y             Z
Electronic contribution:     -2.51267     -15.51131      -0.21737
Nuclear contribution   :      2.83541      17.34200       0.70967
                        -----------------------------------------
Total Dipole Moment    :      0.32274       1.83069       0.49230
                        -----------------------------------------
Magnitude (a.u.)       :      1.92300
Magnitude (Debye)      :      4.88789

Rotational constants in cm-1:     0.011211     0.008653     0.006064
Rotational constants in MHz :   336.096799   259.402030   181.792935

                             ****ORCA TERMINATED NORMALLY****
TOTAL RUN TIME: 0 days 2 hours 3 minutes 56 seconds 998 msec
