                         Program Version 5.0.0 -  RELEASE  -
|  1> ! RI-MP2 cc-pVTZ cc-pVTZ/c TightSCF KeepDens NoKeepInts
|  2>
|  3> %pointcharges "srfp_output"
|  4>
|  5> *xyz  0  1
|  6>     C    10.7485664    5.1789785    2.6255568
|  7>     C    10.7877788    3.6293475    2.8049189
|  8>     O     9.9984599    3.0901979    1.7487977
|  9>     C     9.9797984    1.7131538    1.6002326
| 10>     O    10.2950912    0.8981405    2.4673370
| 11>     C     9.4234519    1.3773321    0.2887474
| 12>     C     8.6157254    2.1385460   -0.4618076
| 13>     C     8.1230015    3.5552848   -0.1940081
| 14>     N     8.1582022    1.6420520   -1.6619569
| 15>     C     8.4598717    0.4642669   -2.2204702
| 16>     S     7.7277049   -0.0484147   -3.6413580
| 17>     N     9.1661538   -0.3253835   -1.3748457
| 18>     C     9.8997763   -0.0115236   -0.1565926
| 19>     C    11.4074903   -0.1860281   -0.2731735
| 20>     C    12.0403583   -1.3105473    0.2314740
| 21>     C    13.3635565   -1.5203080    0.0032710
| 22>     C    14.0866993   -0.5530503   -0.7112493
| 23>     C    13.4781662    0.6640115   -1.1553626
| 24>     O    14.1327520    1.5215250   -1.9176589
| 25>     C    12.1381255    0.9002708   -0.8971461
| 26>     H    11.4033734    5.4442183    1.7864732
| 27>     H    11.1639496    5.7229073    3.4827545
| 28>     H     9.7359644    5.5835974    2.5067507
| 29>     H    11.8275638    3.2888956    2.8832135
| 30>     H    10.3689843    3.4157246    3.7959618
| 31>     H     7.4115528    3.9728823   -0.9169539
| 32>     H     9.0441372    4.1415417   -0.2989008
| 33>     H     7.6375188    3.7097117    0.7774076
| 34>     H     7.7180705    2.3122429   -2.2809032
| 35>     H     9.3734928   -1.2604966   -1.7043006
| 36>     H     9.5692714   -0.6608656    0.6633571
| 37>     H    11.4763383   -2.1051196    0.7109866
| 38>     H    13.7910101   -2.4854297    0.2586703
| 39>     H    15.1097779   -0.7814711   -0.9950278
| 40>     H    13.5019301    2.2493975   -2.0554789
| 41>     H    11.5679777    1.6951670   -1.3688106
| 42> *
| 43>
| 44>                          ****END OF INPUT****

CARTESIAN COORDINATES (ANGSTROEM)
---------------------------------
  C     10.748566    5.178978    2.625557
  C     10.787779    3.629348    2.804919
  O      9.998460    3.090198    1.748798
  C      9.979798    1.713154    1.600233
  O     10.295091    0.898141    2.467337
  C      9.423452    1.377332    0.288747
  C      8.615725    2.138546   -0.461808
  C      8.123002    3.555285   -0.194008
  N      8.158202    1.642052   -1.661957
  C      8.459872    0.464267   -2.220470
  S      7.727705   -0.048415   -3.641358
  N      9.166154   -0.325383   -1.374846
  C      9.899776   -0.011524   -0.156593
  C     11.407490   -0.186028   -0.273174
  C     12.040358   -1.310547    0.231474
  C     13.363556   -1.520308    0.003271
  C     14.086699   -0.553050   -0.711249
  C     13.478166    0.664011   -1.155363
  O     14.132752    1.521525   -1.917659
  C     12.138125    0.900271   -0.897146
  H     11.403373    5.444218    1.786473
  H     11.163950    5.722907    3.482754
  H      9.735964    5.583597    2.506751
  H     11.827564    3.288896    2.883214
  H     10.368984    3.415725    3.795962
  H      7.411553    3.972882   -0.916954
  H      9.044137    4.141542   -0.298901
  H      7.637519    3.709712    0.777408
  H      7.718070    2.312243   -2.280903
  H      9.373493   -1.260497   -1.704301
  H      9.569271   -0.660866    0.663357
  H     11.476338   -2.105120    0.710987
  H     13.791010   -2.485430    0.258670
  H     15.109778   -0.781471   -0.995028
  H     13.501930    2.249398   -2.055479
  H     11.567978    1.695167   -1.368811

 Total Charge           Charge          ....    0
 Multiplicity           Mult            ....    1
 Number of Electrons    NEL             ....  154
 Basis Dimension        Dim             ....  828

ORBITAL ENERGIES
----------------

  NO   OCC          E(Eh)            E(eV)
   0   2.0000     -93.204728     -2536.2296
   1   2.0000     -21.888647      -595.6204
   2   2.0000     -21.877467      -595.3161
   3   2.0000     -21.853813      -594.6725
   4   2.0000     -16.906038      -460.0367
   5   2.0000     -16.893577      -459.6976
   6   2.0000     -12.693629      -345.4112
   7   2.0000     -12.684405      -345.1602
   8   2.0000     -12.610937      -343.1610
   9   2.0000     -12.594610      -342.7168
  10   2.0000     -12.582502      -342.3873
  11   2.0000     -12.564151      -341.8879
  12   2.0000     -12.539971      -341.2300
  13   2.0000     -12.530080      -340.9608
  14   2.0000     -12.524092      -340.7979
  15   2.0000     -12.519126      -340.6627
  16   2.0000     -12.518963      -340.6583
  17   2.0000     -12.518503      -340.6458
  18   2.0000     -12.506374      -340.3157
  19   2.0000     -12.492120      -339.9279
  20   2.0000     -10.210467      -277.8409
  21   2.0000      -7.892438      -214.7641
  22   2.0000      -7.890425      -214.7094
  23   2.0000      -7.890066      -214.6996
  24   2.0000      -2.738563       -74.5201
  25   2.0000      -2.714300       -73.8599
  26   2.0000      -2.655092       -72.2487
  27   2.0000      -2.641654       -71.8830
  28   2.0000      -2.524191       -68.6867
  29   2.0000      -2.441100       -66.4257
  30   2.0000      -2.410228       -65.5856
  31   2.0000      -2.319492       -63.1166
  32   2.0000      -2.310359       -62.8681
  33   2.0000      -2.298823       -62.5542
  34   2.0000      -2.274677       -61.8971
  35   2.0000      -2.270799       -61.7916
  36   2.0000      -2.208756       -60.1033
  37   2.0000      -2.167029       -58.9679
  38   2.0000      -2.139902       -58.2297
  39   2.0000      -2.129300       -57.9412
  40   2.0000      -2.104702       -57.2719
  41   2.0000      -2.095266       -57.0151
  42   2.0000      -2.041389       -55.5490
  43   2.0000      -2.031583       -55.2822
  44   2.0000      -2.020597       -54.9832
  45   2.0000      -1.984633       -54.0046
  46   2.0000      -1.975961       -53.7686
  47   2.0000      -1.956691       -53.2443
  48   2.0000      -1.952007       -53.1168
  49   2.0000      -1.946040       -52.9545
  50   2.0000      -1.933218       -52.6055
  51   2.0000      -1.920260       -52.2529
  52   2.0000      -1.913852       -52.0786
  53   2.0000      -1.895222       -51.5716
  54   2.0000      -1.890399       -51.4404
  55   2.0000      -1.877805       -51.0977
  56   2.0000      -1.872221       -50.9457
  57   2.0000      -1.860581       -50.6290
  58   2.0000      -1.855066       -50.4789
  59   2.0000      -1.840955       -50.0949
  60   2.0000      -1.836181       -49.9650
  61   2.0000      -1.818409       -49.4814
  62   2.0000      -1.812242       -49.3136
  63   2.0000      -1.804006       -49.0895
  64   2.0000      -1.797368       -48.9089
  65   2.0000      -1.790140       -48.7122
  66   2.0000      -1.784395       -48.5558
  67   2.0000      -1.775271       -48.3076
  68   2.0000      -1.768113       -48.1128
  69   2.0000      -1.749287       -47.6005
  70   2.0000      -1.742081       -47.4044
  71   2.0000      -1.737119       -47.2694
  72   2.0000      -1.651963       -44.9522
  73   2.0000      -1.648931       -44.8697
  74   2.0000      -1.630066       -44.3563
  75   2.0000      -1.616196       -43.9789
  76   2.0000      -1.601766       -43.5863
  77   0.0000      -1.213056       -33.0089
  78   0.0000      -1.179999       -32.1094
  79   0.0000      -1.139868       -31.0174
  80   0.0000      -1.133763       -30.8513
  81   0.0000      -1.128793       -30.7160

MULLIKEN ATOMIC CHARGES
-----------------------
   0 C :   -0.289245
   1 C :    0.025067
   2 O :   -0.315718
   3 C :    0.478647
   4 O :   -0.574532
   5 C :   -0.188823
   6 C :    0.171869
   7 C :   -0.284063
   8 N :   -0.102356
   9 C :    0.349609
  10 S :   -0.725596
  11 N :   -0.215850
  12 C :    0.090395
  13 C :   -0.005068
  14 C :   -0.207998
  15 C :   -0.125607
  16 C :   -0.310877
  17 C :    0.308670
  18 O :   -0.414142
  19 C :   -0.283259
  20 H :    0.101294
  21 H :    0.110850
  22 H :    0.103567
  23 H :    0.104070
  24 H :    0.096900
  25 H :    0.133414
  26 H :    0.132850
  27 H :    0.136794
  28 H :    0.243417
  29 H :    0.242784
  30 H :    0.159410
  31 H :    0.175285
  32 H :    0.199428
  33 H :    0.173755
  34 H :    0.319524
  35 H :    0.185537
Sum of atomic charges:    0.0000000

LOEWDIN ATOMIC CHARGES
----------------------
   0 C :    0.113274
   1 C :   -0.027738
   2 O :    0.324268
   3 C :   -0.361130
   4 O :    0.000656
   5 C :   -0.099431
   6 C :   -0.054133
   7 C :    0.141361
   8 N :    0.432013
   9 C :   -0.419600
  10 S :   -0.241413
  11 N :    0.427284
  12 C :   -0.050882
  13 C :   -0.030671
  14 C :   -0.004278
  15 C :    0.030741
  16 C :    0.013079
  17 C :   -0.234087
  18 O :    0.389954
  19 C :    0.022095
  20 H :   -0.028585
  21 H :   -0.021177
  22 H :   -0.027319
  23 H :   -0.026117
  24 H :   -0.030813
  25 H :   -0.009091
  26 H :   -0.005334
  27 H :   -0.007412
  28 H :   -0.018454
  29 H :   -0.031194
  30 H :   -0.002671
  31 H :   -0.010701
  32 H :   -0.003746
  33 H :   -0.025899
  34 H :   -0.102703
  35 H :   -0.020146

  Mayer bond orders larger than 0.100000
B(  0-C ,  1-C ) :   0.9705 B(  0-C , 20-H ) :   0.9789 B(  0-C , 21-H ) :   0.9777
B(  0-C , 22-H ) :   0.9764 B(  1-C ,  2-O ) :   0.9173 B(  1-C , 23-H ) :   0.9727
B(  1-C , 24-H ) :   0.9803 B(  2-O ,  3-C ) :   1.2013 B(  3-C ,  4-O ) :   1.8934
B(  3-C ,  5-C ) :   1.0617 B(  5-C ,  6-C ) :   1.6162 B(  5-C , 12-C ) :   0.9734
B(  6-C ,  7-C ) :   0.9577 B(  6-C ,  8-N ) :   1.1645 B(  7-C , 25-H ) :   0.9849
B(  7-C , 26-H ) :   0.9556 B(  7-C , 27-H ) :   0.9641 B(  8-N ,  9-C ) :   1.2835
B(  8-N , 28-H ) :   0.9289 B(  9-C , 10-S ) :   1.2453 B(  9-C , 11-N ) :   1.4256
B( 11-N , 12-C ) :   0.9543 B( 11-N , 29-H ) :   0.9332 B( 12-C , 13-C ) :   0.9548
B( 12-C , 30-H ) :   0.9877 B( 13-C , 14-C ) :   1.3889 B( 13-C , 19-C ) :   1.2544
B( 14-C , 15-C ) :   1.3353 B( 14-C , 31-H ) :   0.9665 B( 15-C , 16-C ) :   1.4082
B( 15-C , 32-H ) :   0.9610 B( 16-C , 17-C ) :   1.2951 B( 16-C , 33-H ) :   0.9654
B( 17-C , 18-O ) :   1.1284 B( 17-C , 19-C ) :   1.4007 B( 18-O , 34-H ) :   0.9242
B( 19-C , 35-H ) :   0.9669

MP2 TOTAL ENERGY:    -1274.439916592 Eh
FINAL SINGLE POINT ENERGY     -1274.439916592269

DIPOLE MOMENT
-------------
                                X             Y             Z
Electronic contribution:     -3.37807     -12.24370     -10.41677
Nuclear contribution   :      3.87860      15.12857      11.92836
                        -----------------------------------------
Total Dipole Moment    :      0.50053       2.88487       1.51160
                        -----------------------------------------
Magnitude (a.u.)       :      3.29514
Magnitude (Debye)      :      8.37558

Rotational constants in cm-1:     0.010020     0.009287     0.005998
Rotational constants in MHz :   300.378801   278.428397   179.816335

                             ****ORCA TERMINATED NORMALLY****
TOTAL RUN TIME: 0 days 2 hours 5 minutes 58 seconds 434 msec
