                         Program Version 5.0.0 -  RELEASE  -
|  1> ! RI-MP2 cc-pVTZ cc-pVTZ/c TightSCF KeepDens NoKeepInts
|  2>
|  3> *xyz  0  1
|  4>     C    10.7485664    5.1789785    2.6255568
|  5>     C    10.7877788    3.6293475    2.8049189
|  6>     O     9.9984599    3.0901979    1.7487977
|  7>     C     9.9797984    1.7131538    1.6002326
|  8>     O    10.2950912    0.8981405    2.4673370
|  9>     C     9.4234519    1.3773321    0.2887474
| 10>     C     8.6157254    2.1385460   -0.4618076
| 11>     C     8.1230015    3.5552848   -0.1940081
| 12>     N     8.1582022    1.6420520   -1.6619569
| 13>     C     8.4598717    0.4642669   -2.2204702
| 14>     S     7.7277049   -0.0484147   -3.6413580
| 15>     N     9.1661538   -0.3253835   -1.3748457
| 16>     C     9.8997763   -0.0115236   -0.1565926
| 17>     C    11.4074903   -0.1860281   -0.2731735
| 18>     C    12.0403583   -1.3105473    0.2314740
| 19>     C    13.3635565   -1.5203080    0.0032710
| 20>     C    14.0866993   -0.5530503   -0.7112493
| 21>     C    13.4781662    0.6640115   -1.1553626
| 22>     O    14.1327520    1.5215250   -1.9176589
| 23>     C    12.1381255    0.9002708   -0.8971461
| 24>     H    11.4033734    5.4442183    1.7864732
| 25>     H    11.1639496    5.7229073    3.4827545
| 26>     H     9.7359644    5.5835974    2.5067507
| 27>     H    11.8275638    3.2888956    2.8832135
| 28>     H    10.3689843    3.4157246    3.7959618
| 29>     H     7.4115528    3.9728823   -0.9169539
| 30>     H     9.0441372    4.1415417   -0.2989008
| 31>     H     7.6375188    3.7097117    0.7774076
| 32>     H     7.7180705    2.3122429   -2.2809032
| 33>     H     9.3734928   -1.2604966   -1.7043006
| 34>     H     9.5692714   -0.6608656    0.6633571
| 35>     H    11.4763383   -2.1051196    0.7109866
| 36>     H    13.7910101   -2.4854297    0.2586703
| 37>     H    15.1097779   -0.7814711   -0.9950278
| 38>     H    13.5019301    2.2493975   -2.0554789
| 39>     H    11.5679777    1.6951670   -1.3688106
| 40> *
| 41>
| 42>                          ****END OF INPUT****

CARTESIAN COORDINATES (ANGSTROEM)
---------------------------------
  C     10.748566    5.178978    2.625557
  C     10.787779    3.629348    2.804919
  O      9.998460    3.090198    1.748798
  C      9.979798    1.713154    1.600233
  O     10.295091    0.898141    2.467337
  C      9.423452    1.377332    0.288747
  C      8.615725    2.138546   -0.461808
  C      8.123002    3.555285   -0.194008
  N      8.158202    1.642052   -1.661957
  C      8.459872    0.464267   -2.220470
  S      7.727705   -0.048415   -3.641358
  N      9.166154   -0.325383   -1.374846
  C      9.899776   -0.011524   -0.156593
  C     11.407490   -0.186028   -0.273174
  C     12.040358   -1.310547    0.231474
  C     13.363556   -1.520308    0.003271
  C     14.086699   -0.553050   -0.711249
  C     13.478166    0.664011   -1.155363
  O     14.132752    1.521525   -1.917659
  C     12.138125    0.900271   -0.897146
  H     11.403373    5.444218    1.786473
  H     11.163950    5.722907    3.482754
  H      9.735964    5.583597    2.506751
  H     11.827564    3.288896    2.883214
  H     10.368984    3.415725    3.795962
  H      7.411553    3.972882   -0.916954
  H      9.044137    4.141542   -0.298901
  H      7.637519    3.709712    0.777408
  H      7.718070    2.312243   -2.280903
  H      9.373493   -1.260497   -1.704301
  H      9.569271   -0.660866    0.663357
  H     11.476338   -2.105120    0.710987
  H     13.791010   -2.485430    0.258670
  H     15.109778   -0.781471   -0.995028
  H     13.501930    2.249398   -2.055479
  H     11.567978    1.695167   -1.368811

 Total Charge           Charge          ....    0
 Multiplicity           Mult            ....    1
 Number of Electrons    NEL             ....  154
 Basis Dimension        Dim             ....  828

ORBITAL ENERGIES
----------------

  NO   OCC          E(Eh)            E(eV)
   0   2.0000     -91.890775     -2500.4751
   1   2.0000     -20.611078      -560.8559
   2   2.0000     -20.602694      -560.6278
   3   2.0000     -20.555574      -559.3456
   4   2.0000     -15.627289      -425.2401
   5   2.0000     -15.607860      -424.7115
   6   2.0000     -11.397993      -310.1552
   7   2.0000     -11.384434      -309.7862
   8   2.0000     -11.335244      -308.4477
   9   2.0000     -11.317678      -307.9697
  10   2.0000     -11.303758      -307.5909
  11   2.0000     -11.300760      -307.5093
  12   2.0000     -11.263610      -306.4984
  13   2.0000     -11.263024      -306.4825
  14   2.0000     -11.253877      -306.2336
  15   2.0000     -11.248328      -306.0826
  16   2.0000     -11.243739      -305.9577
  17   2.0000     -11.240817      -305.8782
  18   2.0000     -11.236737      -305.7672
  19   2.0000     -11.230077      -305.5859
  20   2.0000      -8.894839      -242.0409
  21   2.0000      -6.576350      -178.9516
  22   2.0000      -6.574337      -178.8968
  23   2.0000      -6.573794      -178.8820
  24   2.0000      -1.453292       -39.5461
  25   2.0000      -1.438637       -39.1473
  26   2.0000      -1.362310       -37.0703
  27   2.0000      -1.359256       -36.9872
  28   2.0000      -1.244495       -33.8644
  29   2.0000      -1.161707       -31.6116
  30   2.0000      -1.130807       -30.7708
  31   2.0000      -1.044754       -28.4292
  32   2.0000      -1.039145       -28.2766
  33   2.0000      -1.022666       -27.8281
  34   2.0000      -1.003026       -27.2937
  35   2.0000      -0.983114       -26.7519
  36   2.0000      -0.929391       -25.2900
  37   2.0000      -0.892166       -24.2771
  38   2.0000      -0.860600       -23.4181
  39   2.0000      -0.853063       -23.2130
  40   2.0000      -0.831340       -22.6219
  41   2.0000      -0.819083       -22.2884
  42   2.0000      -0.760989       -20.7076
  43   2.0000      -0.750993       -20.4356
  44   2.0000      -0.743634       -20.2353
  45   2.0000      -0.704997       -19.1839
  46   2.0000      -0.686255       -18.6740
  47   2.0000      -0.678866       -18.4729
  48   2.0000      -0.677758       -18.4427
  49   2.0000      -0.665284       -18.1033
  50   2.0000      -0.653036       -17.7700
  51   2.0000      -0.645163       -17.5558
  52   2.0000      -0.640597       -17.4315
  53   2.0000      -0.624394       -16.9906
  54   2.0000      -0.612238       -16.6598
  55   2.0000      -0.606852       -16.5133
  56   2.0000      -0.597407       -16.2563
  57   2.0000      -0.584287       -15.8993
  58   2.0000      -0.580881       -15.8066
  59   2.0000      -0.566620       -15.4185
  60   2.0000      -0.555899       -15.1268
  61   2.0000      -0.551855       -15.0167
  62   2.0000      -0.538595       -14.6559
  63   2.0000      -0.527655       -14.3582
  64   2.0000      -0.518638       -14.1129
  65   2.0000      -0.509144       -13.8545
  66   2.0000      -0.506927       -13.7942
  67   2.0000      -0.505050       -13.7431
  68   2.0000      -0.486866       -13.2483
  69   2.0000      -0.464482       -12.6392
  70   2.0000      -0.462536       -12.5862
  71   2.0000      -0.456261       -12.4155
  72   2.0000      -0.357740        -9.7346
  73   2.0000      -0.348115        -9.4727
  74   2.0000      -0.328904        -8.9499
  75   2.0000      -0.322029        -8.7628
  76   2.0000      -0.315453        -8.5839
  77   0.0000       0.075429         2.0525
  78   0.0000       0.096123         2.6156
  79   0.0000       0.109240         2.9726
  80   0.0000       0.133176         3.6239
  81   0.0000       0.135785         3.6949

MULLIKEN ATOMIC CHARGES
-----------------------
   0 C :   -0.286314
   1 C :    0.034322
   2 O :   -0.337194
   3 C :    0.413155
   4 O :   -0.418864
   5 C :   -0.185478
   6 C :    0.144763
   7 C :   -0.288366
   8 N :   -0.084749
   9 C :    0.195852
  10 S :   -0.446712
  11 N :   -0.195617
  12 C :    0.062072
  13 C :    0.032219
  14 C :   -0.177026
  15 C :   -0.094481
  16 C :   -0.246745
  17 C :    0.309521
  18 O :   -0.332526
  19 C :   -0.301133
  20 H :    0.090026
  21 H :    0.103160
  22 H :    0.099154
  23 H :    0.096772
  24 H :    0.090064
  25 H :    0.111517
  26 H :    0.123662
  27 H :    0.133652
  28 H :    0.183781
  29 H :    0.181683
  30 H :    0.150548
  31 H :    0.143241
  32 H :    0.161520
  33 H :    0.154911
  34 H :    0.245600
  35 H :    0.134008
Sum of atomic charges:    0.0000000

LOEWDIN ATOMIC CHARGES
----------------------
   0 C :    0.107414
   1 C :   -0.029332
   2 O :    0.308504
   3 C :   -0.386845
   4 O :    0.099486
   5 C :   -0.101145
   6 C :   -0.078913
   7 C :    0.129896
   8 N :    0.412880
   9 C :   -0.461923
  10 S :   -0.063471
  11 N :    0.405714
  12 C :   -0.057428
  13 C :   -0.018430
  14 C :    0.000277
  15 C :    0.039006
  16 C :    0.032055
  17 C :   -0.221939
  18 O :    0.421948
  19 C :    0.007288
  20 H :   -0.032864
  21 H :   -0.025045
  22 H :   -0.029729
  23 H :   -0.027850
  24 H :   -0.032538
  25 H :   -0.020681
  26 H :   -0.011644
  27 H :   -0.010264
  28 H :   -0.048193
  29 H :   -0.060790
  30 H :   -0.005947
  31 H :   -0.020565
  32 H :   -0.013614
  33 H :   -0.029460
  34 H :   -0.138991
  35 H :   -0.036867

  Mayer bond orders larger than 0.100000
B(  0-C ,  1-C ) :   0.9670 B(  0-C , 20-H ) :   0.9803 B(  0-C , 21-H ) :   0.9797
B(  0-C , 22-H ) :   0.9765 B(  1-C ,  2-O ) :   0.9352 B(  1-C , 23-H ) :   0.9739
B(  1-C , 24-H ) :   0.9821 B(  2-O ,  3-C ) :   1.1472 B(  3-C ,  4-O ) :   1.9967
B(  3-C ,  5-C ) :   1.0282 B(  5-C ,  6-C ) :   1.6350 B(  5-C , 12-C ) :   0.9704
B(  6-C ,  7-C ) :   0.9584 B(  6-C ,  8-N ) :   1.1685 B(  7-C , 25-H ) :   0.9898
B(  7-C , 26-H ) :   0.9606 B(  7-C , 27-H ) :   0.9669 B(  8-N ,  9-C ) :   1.1955
B(  8-N , 28-H ) :   0.9533 B(  9-C , 10-S ) :   1.5624 B(  9-C , 11-N ) :   1.3241
B( 11-N , 12-C ) :   0.9625 B( 11-N , 29-H ) :   0.9622 B( 12-C , 13-C ) :   0.9600
B( 12-C , 30-H ) :   0.9867 B( 13-C , 14-C ) :   1.4105 B( 13-C , 19-C ) :   1.2937
B( 14-C , 15-C ) :   1.3369 B( 14-C , 31-H ) :   0.9744 B( 15-C , 16-C ) :   1.4159
B( 15-C , 32-H ) :   0.9740 B( 16-C , 17-C ) :   1.3111 B( 16-C , 33-H ) :   0.9716
B( 17-C , 18-O ) :   1.1392 B( 17-C , 19-C ) :   1.3769 B( 18-O , 34-H ) :   0.9729
B( 19-C , 35-H ) :   0.9784

MP2 TOTAL ENERGY:    -1274.314891311 Eh
FINAL SINGLE POINT ENERGY     -1274.314891311236

DIPOLE MOMENT
-------------
                                X             Y             Z
Electronic contribution:     -3.44783     -13.35136     -10.86701
Nuclear contribution   :      3.87860      15.12857      11.92836
                        -----------------------------------------
Total Dipole Moment    :      0.43077       1.77721       1.06135
                        -----------------------------------------
Magnitude (a.u.)       :      2.11436
Magnitude (Debye)      :      5.37427

Rotational constants in cm-1:     0.010020     0.009287     0.005998
Rotational constants in MHz :   300.378801   278.428397   179.816335

                             ****ORCA TERMINATED NORMALLY****
TOTAL RUN TIME: 0 days 2 hours 8 minutes 1 seconds 156 msec
