                         Program Version 5.0.0 -  RELEASE  -
|  1> ! RI-MP2 cc-pVTZ cc-pVTZ/c TightSCF KeepDens NoKeepInts
|  2>
|  3> *xyz  0  1
|  4>     C     6.7205893    4.6254973   13.9417838
|  5>     C     6.0951465    6.0122104   13.7996022
|  6>     O     6.1375885    6.2935132   12.4117462
|  7>     C     5.0838928    5.8259890   11.6856296
|  8>     O     4.0971263    5.2776948   12.1312695
|  9>     C     5.2718406    6.1731532   10.1999499
| 10>     C     4.4708351    5.6293941    9.2401526
| 11>     C     3.2293501    4.8343824    9.4887108
| 12>     N     4.8390074    5.7250214    7.9178385
| 13>     C     5.9928817    6.3110828    7.4561444
| 14>     S     6.2923900    6.5057804    5.8721293
| 15>     N     6.7473008    7.0484188    8.3623958
| 16>     C     6.4377867    7.1511272    9.8210368
| 17>     C     6.3473677    8.6268068   10.2614632
| 18>     C     7.3312090    9.0125793   11.1767961
| 19>     C     7.4472767   10.3835391   11.5154782
| 20>     C     6.4901442   11.2513755   11.1111809
| 21>     C     5.4495575   10.7894034   10.3473574
| 22>     O     4.4648601   11.6557551   10.0863815
| 23>     C     5.3476369    9.5028981    9.9042339
| 24>     H     6.5690259    4.0352178   13.0297613
| 25>     H     6.4014966    4.0496282   14.8191345
| 26>     H     7.7971642    4.7628830   14.1008535
| 27>     H     5.0570314    6.0742515   14.1483964
| 28>     H     6.7172282    6.6713928   14.4174084
| 29>     H     3.3691544    3.9595324   10.1354539
| 30>     H     2.8021384    4.5205841    8.5283926
| 31>     H     2.5304145    5.5669990    9.9105537
| 32>     H     4.2072117    5.3752404    7.2075892
| 33>     H     7.4489564    7.6749460    7.9867504
| 34>     H     7.3489617    6.6994922   10.2321088
| 35>     H     8.0842396    8.3105451   11.5224679
| 36>     H     8.1880916   10.8225679   12.1771752
| 37>     H     6.6441747   12.3167813   11.2546417
| 38>     H     4.8805923   12.4808530   10.3915197
| 39>     H     4.5084752    9.1116840    9.3366467
| 40> *
| 41>
| 42>                          ****END OF INPUT****

CARTESIAN COORDINATES (ANGSTROEM)
---------------------------------
  C      6.720589    4.625497   13.941784
  C      6.095146    6.012210   13.799602
  O      6.137588    6.293513   12.411746
  C      5.083893    5.825989   11.685630
  O      4.097126    5.277695   12.131270
  C      5.271841    6.173153   10.199950
  C      4.470835    5.629394    9.240153
  C      3.229350    4.834382    9.488711
  N      4.839007    5.725021    7.917839
  C      5.992882    6.311083    7.456144
  S      6.292390    6.505780    5.872129
  N      6.747301    7.048419    8.362396
  C      6.437787    7.151127    9.821037
  C      6.347368    8.626807   10.261463
  C      7.331209    9.012579   11.176796
  C      7.447277   10.383539   11.515478
  C      6.490144   11.251375   11.111181
  C      5.449558   10.789403   10.347357
  O      4.464860   11.655755   10.086381
  C      5.347637    9.502898    9.904234
  H      6.569026    4.035218   13.029761
  H      6.401497    4.049628   14.819135
  H      7.797164    4.762883   14.100853
  H      5.057031    6.074251   14.148396
  H      6.717228    6.671393   14.417408
  H      3.369154    3.959532   10.135454
  H      2.802138    4.520584    8.528393
  H      2.530414    5.566999    9.910554
  H      4.207212    5.375240    7.207589
  H      7.448956    7.674946    7.986750
  H      7.348962    6.699492   10.232109
  H      8.084240    8.310545   11.522468
  H      8.188092   10.822568   12.177175
  H      6.644175   12.316781   11.254642
  H      4.880592   12.480853   10.391520
  H      4.508475    9.111684    9.336647

 Total Charge           Charge          ....    0
 Multiplicity           Mult            ....    1
 Number of Electrons    NEL             ....  154
 Basis Dimension        Dim             ....  828

ORBITAL ENERGIES
----------------

  NO   OCC          E(Eh)            E(eV)
   0   2.0000     -91.887688     -2500.3911
   1   2.0000     -20.607825      -560.7674
   2   2.0000     -20.592131      -560.3404
   3   2.0000     -20.546557      -559.1003
   4   2.0000     -15.628690      -425.2783
   5   2.0000     -15.600199      -424.5030
   6   2.0000     -11.396918      -310.1259
   7   2.0000     -11.382453      -309.7323
   8   2.0000     -11.329449      -308.2900
   9   2.0000     -11.304521      -307.6116
  10   2.0000     -11.302425      -307.5546
  11   2.0000     -11.292207      -307.2766
  12   2.0000     -11.257410      -306.3297
  13   2.0000     -11.255341      -306.2734
  14   2.0000     -11.249822      -306.1232
  15   2.0000     -11.248585      -306.0896
  16   2.0000     -11.235626      -305.7369
  17   2.0000     -11.231472      -305.6239
  18   2.0000     -11.231003      -305.6111
  19   2.0000     -11.223921      -305.4184
  20   2.0000      -8.894114      -242.0211
  21   2.0000      -6.575779      -178.9360
  22   2.0000      -6.573687      -178.8791
  23   2.0000      -6.573037      -178.8614
  24   2.0000      -1.462576       -39.7987
  25   2.0000      -1.427485       -38.8438
  26   2.0000      -1.366962       -37.1969
  27   2.0000      -1.335775       -36.3483
  28   2.0000      -1.231181       -33.5021
  29   2.0000      -1.168294       -31.7909
  30   2.0000      -1.116216       -30.3738
  31   2.0000      -1.051343       -28.6085
  32   2.0000      -1.041377       -28.3373
  33   2.0000      -1.018050       -27.7026
  34   2.0000      -0.995615       -27.0920
  35   2.0000      -0.986026       -26.8311
  36   2.0000      -0.917324       -24.9616
  37   2.0000      -0.893193       -24.3050
  38   2.0000      -0.845624       -23.0106
  39   2.0000      -0.840989       -22.8845
  40   2.0000      -0.835825       -22.7440
  41   2.0000      -0.810654       -22.0590
  42   2.0000      -0.763551       -20.7773
  43   2.0000      -0.728931       -19.8352
  44   2.0000      -0.721916       -19.6443
  45   2.0000      -0.701638       -19.0925
  46   2.0000      -0.687561       -18.7095
  47   2.0000      -0.685312       -18.6483
  48   2.0000      -0.671502       -18.2725
  49   2.0000      -0.659703       -17.9514
  50   2.0000      -0.643557       -17.5121
  51   2.0000      -0.636604       -17.3229
  52   2.0000      -0.633042       -17.2259
  53   2.0000      -0.617631       -16.8066
  54   2.0000      -0.608118       -16.5477
  55   2.0000      -0.603850       -16.4316
  56   2.0000      -0.602581       -16.3971
  57   2.0000      -0.580424       -15.7941
  58   2.0000      -0.569513       -15.4972
  59   2.0000      -0.567968       -15.4552
  60   2.0000      -0.561666       -15.2837
  61   2.0000      -0.540529       -14.7085
  62   2.0000      -0.538563       -14.6550
  63   2.0000      -0.534431       -14.5426
  64   2.0000      -0.525770       -14.3069
  65   2.0000      -0.514664       -14.0047
  66   2.0000      -0.497710       -13.5434
  67   2.0000      -0.489873       -13.3301
  68   2.0000      -0.486004       -13.2248
  69   2.0000      -0.460899       -12.5417
  70   2.0000      -0.458879       -12.4867
  71   2.0000      -0.448531       -12.2051
  72   2.0000      -0.359692        -9.7877
  73   2.0000      -0.346565        -9.4305
  74   2.0000      -0.328203        -8.9309
  75   2.0000      -0.318854        -8.6764
  76   2.0000      -0.316912        -8.6236
  77   0.0000       0.076687         2.0868
  78   0.0000       0.112548         3.0626
  79   0.0000       0.122879         3.3437
  80   0.0000       0.130645         3.5550
  81   0.0000       0.137927         3.7532

MULLIKEN ATOMIC CHARGES
-----------------------
   0 C :   -0.270136
   1 C :    0.021596
   2 O :   -0.324683
   3 C :    0.463904
   4 O :   -0.428528
   5 C :   -0.253361
   6 C :    0.153232
   7 C :   -0.269933
   8 N :   -0.114792
   9 C :    0.219110
  10 S :   -0.424301
  11 N :   -0.225132
  12 C :    0.030676
  13 C :    0.075565
  14 C :   -0.203262
  15 C :   -0.112213
  16 C :   -0.273811
  17 C :    0.355773
  18 O :   -0.359411
  19 C :   -0.282279
  20 H :    0.095828
  21 H :    0.094436
  22 H :    0.085469
  23 H :    0.107850
  24 H :    0.106723
  25 H :    0.138762
  26 H :    0.087251
  27 H :    0.128434
  28 H :    0.194981
  29 H :    0.199526
  30 H :    0.157545
  31 H :    0.151029
  32 H :    0.155143
  33 H :    0.116706
  34 H :    0.240395
  35 H :    0.161905
Sum of atomic charges:   -0.0000000

LOEWDIN ATOMIC CHARGES
----------------------
   0 C :    0.099920
   1 C :   -0.036616
   2 O :    0.330689
   3 C :   -0.418590
   4 O :    0.109328
   5 C :   -0.091086
   6 C :   -0.089203
   7 C :    0.133739
   8 N :    0.407814
   9 C :   -0.465088
  10 S :    0.002029
  11 N :    0.375969
  12 C :   -0.037116
  13 C :   -0.040121
  14 C :    0.022957
  15 C :    0.040923
  16 C :   -0.012447
  17 C :   -0.216489
  18 O :    0.409391
  19 C :    0.025645
  20 H :   -0.026159
  21 H :   -0.026657
  22 H :   -0.028753
  23 H :   -0.031301
  24 H :   -0.024158
  25 H :   -0.005394
  26 H :   -0.023650
  27 H :   -0.002457
  28 H :   -0.051268
  29 H :   -0.071089
  30 H :   -0.021325
  31 H :   -0.029884
  32 H :   -0.019086
  33 H :   -0.023654
  34 H :   -0.150884
  35 H :   -0.015930

  Mayer bond orders larger than 0.100000
B(  0-C ,  1-C ) :   0.9464 B(  0-C , 20-H ) :   0.9804 B(  0-C , 21-H ) :   0.9787
B(  0-C , 22-H ) :   0.9841 B(  1-C ,  2-O ) :   0.9119 B(  1-C , 23-H ) :   0.9798
B(  1-C , 24-H ) :   0.9864 B(  2-O ,  3-C ) :   1.1780 B(  3-C ,  4-O ) :   1.9683
B(  3-C ,  5-C ) :   1.0512 B(  5-C ,  6-C ) :   1.6461 B(  5-C , 12-C ) :   0.9653
B(  6-C ,  7-C ) :   0.9623 B(  6-C ,  8-N ) :   1.1770 B(  7-C , 25-H ) :   0.9595
B(  7-C , 26-H ) :   0.9908 B(  7-C , 27-H ) :   0.9632 B(  8-N ,  9-C ) :   1.1741
B(  8-N , 28-H ) :   0.9465 B(  9-C , 10-S ) :   1.6393 B(  9-C , 11-N ) :   1.2893
B( 11-N , 12-C ) :   0.9573 B( 11-N , 29-H ) :   0.9482 B( 12-C , 13-C ) :   0.9599
B( 12-C , 30-H ) :   1.0098 B( 13-C , 14-C ) :   1.3777 B( 13-C , 19-C ) :   1.3432
B( 14-C , 15-C ) :   1.3604 B( 14-C , 31-H ) :   0.9735 B( 15-C , 16-C ) :   1.3962
B( 15-C , 32-H ) :   0.9707 B( 16-C , 17-C ) :   1.2921 B( 16-C , 33-H ) :   0.9940
B( 17-C , 18-O ) :   1.0968 B( 17-C , 19-C ) :   1.3829 B( 18-O , 34-H ) :   0.9801
B( 19-C , 35-H ) :   0.9599

MP2 TOTAL ENERGY:    -1274.304957381 Eh
FINAL SINGLE POINT ENERGY     -1274.304957381149

DIPOLE MOMENT
-------------
                                X             Y             Z
Electronic contribution:     -0.54925       5.22717     -14.96783
Nuclear contribution   :      0.82965      -4.73231      16.71454
                        -----------------------------------------
Total Dipole Moment    :      0.28041       0.49487       1.74671
                        -----------------------------------------
Magnitude (a.u.)       :      1.83699
Magnitude (Debye)      :      4.66925

Rotational constants in cm-1:     0.009714     0.009287     0.005837
Rotational constants in MHz :   291.211439   278.412224   174.977161

                             ****ORCA TERMINATED NORMALLY****
TOTAL RUN TIME: 0 days 2 hours 2 minutes 35 seconds 761 msec
