                         Program Version 5.0.0 -  RELEASE  -
|  1> ! RI-MP2 cc-pVTZ cc-pVTZ/c TightSCF KeepDens NoKeepInts
|  2>
|  3> %pointcharges "srfp_output"
|  4>
|  5> *xyz  0  1
|  6>     C     6.7205893    4.6254973   13.9417838
|  7>     C     6.0951465    6.0122104   13.7996022
|  8>     O     6.1375885    6.2935132   12.4117462
|  9>     C     5.0838928    5.8259890   11.6856296
| 10>     O     4.0971263    5.2776948   12.1312695
| 11>     C     5.2718406    6.1731532   10.1999499
| 12>     C     4.4708351    5.6293941    9.2401526
| 13>     C     3.2293501    4.8343824    9.4887108
| 14>     N     4.8390074    5.7250214    7.9178385
| 15>     C     5.9928817    6.3110828    7.4561444
| 16>     S     6.2923900    6.5057804    5.8721293
| 17>     N     6.7473008    7.0484188    8.3623958
| 18>     C     6.4377867    7.1511272    9.8210368
| 19>     C     6.3473677    8.6268068   10.2614632
| 20>     C     7.3312090    9.0125793   11.1767961
| 21>     C     7.4472767   10.3835391   11.5154782
| 22>     C     6.4901442   11.2513755   11.1111809
| 23>     C     5.4495575   10.7894034   10.3473574
| 24>     O     4.4648601   11.6557551   10.0863815
| 25>     C     5.3476369    9.5028981    9.9042339
| 26>     H     6.5690259    4.0352178   13.0297613
| 27>     H     6.4014966    4.0496282   14.8191345
| 28>     H     7.7971642    4.7628830   14.1008535
| 29>     H     5.0570314    6.0742515   14.1483964
| 30>     H     6.7172282    6.6713928   14.4174084
| 31>     H     3.3691544    3.9595324   10.1354539
| 32>     H     2.8021384    4.5205841    8.5283926
| 33>     H     2.5304145    5.5669990    9.9105537
| 34>     H     4.2072117    5.3752404    7.2075892
| 35>     H     7.4489564    7.6749460    7.9867504
| 36>     H     7.3489617    6.6994922   10.2321088
| 37>     H     8.0842396    8.3105451   11.5224679
| 38>     H     8.1880916   10.8225679   12.1771752
| 39>     H     6.6441747   12.3167813   11.2546417
| 40>     H     4.8805923   12.4808530   10.3915197
| 41>     H     4.5084752    9.1116840    9.3366467
| 42> *
| 43>
| 44>                          ****END OF INPUT****

CARTESIAN COORDINATES (ANGSTROEM)
---------------------------------
  C      6.720589    4.625497   13.941784
  C      6.095146    6.012210   13.799602
  O      6.137588    6.293513   12.411746
  C      5.083893    5.825989   11.685630
  O      4.097126    5.277695   12.131270
  C      5.271841    6.173153   10.199950
  C      4.470835    5.629394    9.240153
  C      3.229350    4.834382    9.488711
  N      4.839007    5.725021    7.917839
  C      5.992882    6.311083    7.456144
  S      6.292390    6.505780    5.872129
  N      6.747301    7.048419    8.362396
  C      6.437787    7.151127    9.821037
  C      6.347368    8.626807   10.261463
  C      7.331209    9.012579   11.176796
  C      7.447277   10.383539   11.515478
  C      6.490144   11.251375   11.111181
  C      5.449558   10.789403   10.347357
  O      4.464860   11.655755   10.086381
  C      5.347637    9.502898    9.904234
  H      6.569026    4.035218   13.029761
  H      6.401497    4.049628   14.819135
  H      7.797164    4.762883   14.100853
  H      5.057031    6.074251   14.148396
  H      6.717228    6.671393   14.417408
  H      3.369154    3.959532   10.135454
  H      2.802138    4.520584    8.528393
  H      2.530414    5.566999    9.910554
  H      4.207212    5.375240    7.207589
  H      7.448956    7.674946    7.986750
  H      7.348962    6.699492   10.232109
  H      8.084240    8.310545   11.522468
  H      8.188092   10.822568   12.177175
  H      6.644175   12.316781   11.254642
  H      4.880592   12.480853   10.391520
  H      4.508475    9.111684    9.336647

 Total Charge           Charge          ....    0
 Multiplicity           Mult            ....    1
 Number of Electrons    NEL             ....  154
 Basis Dimension        Dim             ....  828

ORBITAL ENERGIES
----------------

  NO   OCC          E(Eh)            E(eV)
   0   2.0000     -92.547489     -2518.3452
   1   2.0000     -21.258804      -578.4815
   2   2.0000     -21.239421      -577.9540
   3   2.0000     -21.210412      -577.1646
   4   2.0000     -16.270467      -442.7419
   5   2.0000     -16.248163      -442.1350
   6   2.0000     -12.058166      -328.1194
   7   2.0000     -12.039039      -327.5989
   8   2.0000     -11.974474      -325.8420
   9   2.0000     -11.950517      -325.1901
  10   2.0000     -11.949361      -325.1586
  11   2.0000     -11.931156      -324.6633
  12   2.0000     -11.904992      -323.9513
  13   2.0000     -11.900417      -323.8268
  14   2.0000     -11.891559      -323.5858
  15   2.0000     -11.882928      -323.3509
  16   2.0000     -11.880803      -323.2931
  17   2.0000     -11.880583      -323.2871
  18   2.0000     -11.874642      -323.1254
  19   2.0000     -11.858872      -322.6963
  20   2.0000      -9.555154      -260.0089
  21   2.0000      -7.237145      -196.9327
  22   2.0000      -7.234997      -196.8743
  23   2.0000      -7.234474      -196.8600
  24   2.0000      -2.117830       -57.6291
  25   2.0000      -2.076074       -56.4928
  26   2.0000      -2.028129       -55.1882
  27   2.0000      -1.980557       -53.8937
  28   2.0000      -1.875755       -51.0419
  29   2.0000      -1.816730       -49.4357
  30   2.0000      -1.762779       -47.9677
  31   2.0000      -1.696744       -46.1707
  32   2.0000      -1.682780       -45.7908
  33   2.0000      -1.665368       -45.3170
  34   2.0000      -1.643041       -44.7094
  35   2.0000      -1.631928       -44.4070
  36   2.0000      -1.562203       -42.5097
  37   2.0000      -1.536417       -41.8080
  38   2.0000      -1.491001       -40.5722
  39   2.0000      -1.487193       -40.4686
  40   2.0000      -1.482127       -40.3307
  41   2.0000      -1.455512       -39.6065
  42   2.0000      -1.411745       -38.4155
  43   2.0000      -1.374951       -37.4143
  44   2.0000      -1.370114       -37.2827
  45   2.0000      -1.348644       -36.6985
  46   2.0000      -1.347348       -36.6632
  47   2.0000      -1.329282       -36.1716
  48   2.0000      -1.318861       -35.8880
  49   2.0000      -1.308453       -35.6048
  50   2.0000      -1.285120       -34.9699
  51   2.0000      -1.282707       -34.9042
  52   2.0000      -1.275548       -34.7094
  53   2.0000      -1.265867       -34.4460
  54   2.0000      -1.255332       -34.1593
  55   2.0000      -1.252761       -34.0894
  56   2.0000      -1.244000       -33.8510
  57   2.0000      -1.228097       -33.4182
  58   2.0000      -1.217401       -33.1272
  59   2.0000      -1.205985       -32.8165
  60   2.0000      -1.203646       -32.7529
  61   2.0000      -1.187591       -32.3160
  62   2.0000      -1.182452       -32.1761
  63   2.0000      -1.180282       -32.1171
  64   2.0000      -1.173378       -31.9292
  65   2.0000      -1.166265       -31.7357
  66   2.0000      -1.148405       -31.2497
  67   2.0000      -1.134784       -30.8791
  68   2.0000      -1.127723       -30.6869
  69   2.0000      -1.112270       -30.2664
  70   2.0000      -1.108114       -30.1533
  71   2.0000      -1.102550       -30.0019
  72   2.0000      -1.009470       -27.4691
  73   2.0000      -0.996420       -27.1140
  74   2.0000      -0.991460       -26.9790
  75   2.0000      -0.975196       -26.5364
  76   2.0000      -0.968691       -26.3594
  77   0.0000      -0.574694       -15.6382
  78   0.0000      -0.532820       -14.4988
  79   0.0000      -0.509837       -13.8734
  80   0.0000      -0.505441       -13.7537
  81   0.0000      -0.491116       -13.3640

MULLIKEN ATOMIC CHARGES
-----------------------
   0 C :   -0.285953
   1 C :    0.014859
   2 O :   -0.317945
   3 C :    0.505664
   4 O :   -0.543734
   5 C :   -0.267448
   6 C :    0.174582
   7 C :   -0.258456
   8 N :   -0.126596
   9 C :    0.302249
  10 S :   -0.592626
  11 N :   -0.238219
  12 C :    0.049461
  13 C :    0.045548
  14 C :   -0.234998
  15 C :   -0.100303
  16 C :   -0.296608
  17 C :    0.324212
  18 O :   -0.440081
  19 C :   -0.319279
  20 H :    0.092703
  21 H :    0.107384
  22 H :    0.100591
  23 H :    0.107684
  24 H :    0.128330
  25 H :    0.130447
  26 H :    0.114103
  27 H :    0.123632
  28 H :    0.251253
  29 H :    0.247988
  30 H :    0.174477
  31 H :    0.178321
  32 H :    0.186067
  33 H :    0.160654
  34 H :    0.322553
  35 H :    0.179486
Sum of atomic charges:    0.0000000

LOEWDIN ATOMIC CHARGES
----------------------
   0 C :    0.100804
   1 C :   -0.034296
   2 O :    0.336843
   3 C :   -0.403510
   4 O :    0.037541
   5 C :   -0.093978
   6 C :   -0.073024
   7 C :    0.140966
   8 N :    0.422905
   9 C :   -0.440033
  10 S :   -0.110233
  11 N :    0.391645
  12 C :   -0.031777
  13 C :   -0.050619
  14 C :    0.022924
  15 C :    0.045230
  16 C :   -0.006486
  17 C :   -0.240328
  18 O :    0.375092
  19 C :    0.004118
  20 H :   -0.028776
  21 H :   -0.021969
  22 H :   -0.023022
  23 H :   -0.033630
  24 H :   -0.015586
  25 H :   -0.007151
  26 H :   -0.010172
  27 H :   -0.002793
  28 H :   -0.023746
  29 H :   -0.048501
  30 H :   -0.014480
  31 H :   -0.020362
  32 H :   -0.007903
  33 H :   -0.007053
  34 H :   -0.114154
  35 H :   -0.014488

  Mayer bond orders larger than 0.100000
B(  0-C ,  1-C ) :   0.9427 B(  0-C , 20-H ) :   0.9799 B(  0-C , 21-H ) :   0.9766
B(  0-C , 22-H ) :   0.9814 B(  1-C ,  2-O ) :   0.8946 B(  1-C , 23-H ) :   0.9791
B(  1-C , 24-H ) :   0.9829 B(  2-O ,  3-C ) :   1.2089 B(  3-C ,  4-O ) :   1.8888
B(  3-C ,  5-C ) :   1.0855 B(  5-C ,  6-C ) :   1.6143 B(  5-C , 12-C ) :   0.9666
B(  6-C ,  7-C ) :   0.9579 B(  6-C ,  8-N ) :   1.1894 B(  7-C , 25-H ) :   0.9594
B(  7-C , 26-H ) :   0.9870 B(  7-C , 27-H ) :   0.9635 B(  8-N ,  9-C ) :   1.2292
B(  8-N , 28-H ) :   0.9214 B(  9-C , 10-S ) :   1.4585 B(  9-C , 11-N ) :   1.3510
B( 11-N , 12-C ) :   0.9573 B( 11-N , 29-H ) :   0.9262 B( 12-C , 13-C ) :   0.9487
B( 12-C , 30-H ) :   1.0058 B( 13-C , 14-C ) :   1.3771 B( 13-C , 19-C ) :   1.3350
B( 14-C , 15-C ) :   1.3420 B( 14-C , 31-H ) :   0.9641 B( 15-C , 16-C ) :   1.3753
B( 15-C , 32-H ) :   0.9616 B( 16-C , 17-C ) :   1.3016 B( 16-C , 33-H ) :   0.9803
B( 17-C , 18-O ) :   1.1046 B( 17-C , 19-C ) :   1.3788 B( 18-O , 34-H ) :   0.9216
B( 19-C , 35-H ) :   0.9476

MP2 TOTAL ENERGY:    -1274.396631767 Eh
FINAL SINGLE POINT ENERGY     -1274.396631767258

DIPOLE MOMENT
-------------
                                X             Y             Z
Electronic contribution:     -0.05126       5.40244     -14.48639
Nuclear contribution   :      0.82965      -4.73231      16.71454
                        -----------------------------------------
Total Dipole Moment    :      0.77839       0.67013       2.22815
                        -----------------------------------------
Magnitude (a.u.)       :      2.45349
Magnitude (Debye)      :      6.23628

Rotational constants in cm-1:     0.009714     0.009287     0.005837
Rotational constants in MHz :   291.211439   278.412224   174.977161

                             ****ORCA TERMINATED NORMALLY****
TOTAL RUN TIME: 0 days 2 hours 8 minutes 33 seconds 301 msec
