                         Program Version 5.0.0 -  RELEASE  -
|  1> ! HF STO-3G TightSCF KeepDens NoKeepInts
|  2>
|  3> *xyz  0  1
|  4>     C    16.6436530   -9.5814510   -0.8365118
|  5>     C    17.4758984  -10.6222675   -0.0929322
|  6>     O    16.6230464  -11.4814942    0.6261052
|  7>     C    16.0235215  -11.1081774    1.7359824
|  8>     O    16.0080225   -9.9179330    2.1587631
|  9>     C    15.1629785  -12.1100163    2.4234731
| 10>     C    14.8396632  -13.3770832    2.0289793
| 11>     C    15.3942554  -13.9991510    0.7373316
| 12>     N    14.0416277  -14.0984269    2.7729633
| 13>     C    13.3706618  -13.6791237    3.8655599
| 14>     S    11.9673991  -14.6298022    4.6003871
| 15>     N    13.5500932  -12.3810264    4.2387398
| 16>     C    14.5684976  -11.5837140    3.7169858
| 17>     C    15.5363876  -11.4725871    4.8974084
| 18>     C    15.4238979  -10.4746017    5.8566432
| 19>     C    16.3137428  -10.4711488    6.9324918
| 20>     C    17.3508831  -11.3665971    7.0609350
| 21>     C    17.4559063  -12.3377865    6.1165616
| 22>     O    18.5724354  -13.1597544    6.1859331
| 23>     C    16.5727175  -12.4241340    5.0615384
| 24>     H    16.7779524   -9.7128833   -1.9101891
| 25>     H    17.1169084   -8.6565469   -0.5068427
| 26>     H    15.5664683   -9.5907953   -0.6701014
| 27>     H    17.9977813  -11.1367423   -0.8998115
| 28>     H    18.2065573  -10.3365196    0.6637618
| 29>     H    15.1259190  -13.3586426   -0.1028140
| 30>     H    14.9454960  -14.9909346    0.6818010
| 31>     H    16.4796720  -13.9670685    0.8318941
| 32>     H    13.7286914  -14.9776011    2.3866687
| 33>     H    13.0427310  -12.1220702    5.0727813
| 34>     H    14.1555359  -10.5889704    3.5495106
| 35>     H    14.7642980   -9.6261542    5.7495687
| 36>     H    16.3759228   -9.6613045    7.6443106
| 37>     H    18.0813445  -11.1660145    7.8307355
| 38>     H    19.1877427  -12.9008447    6.8758338
| 39>     H    16.6702854  -13.2407911    4.3615667
| 40> *
| 41>
| 42>                          ****END OF INPUT****

CARTESIAN COORDINATES (ANGSTROEM)
---------------------------------
  C     16.643653   -9.581451   -0.836512
  C     17.475898  -10.622267   -0.092932
  O     16.623046  -11.481494    0.626105
  C     16.023522  -11.108177    1.735982
  O     16.008022   -9.917933    2.158763
  C     15.162978  -12.110016    2.423473
  C     14.839663  -13.377083    2.028979
  C     15.394255  -13.999151    0.737332
  N     14.041628  -14.098427    2.772963
  C     13.370662  -13.679124    3.865560
  S     11.967399  -14.629802    4.600387
  N     13.550093  -12.381026    4.238740
  C     14.568498  -11.583714    3.716986
  C     15.536388  -11.472587    4.897408
  C     15.423898  -10.474602    5.856643
  C     16.313743  -10.471149    6.932492
  C     17.350883  -11.366597    7.060935
  C     17.455906  -12.337786    6.116562
  O     18.572435  -13.159754    6.185933
  C     16.572717  -12.424134    5.061538
  H     16.777952   -9.712883   -1.910189
  H     17.116908   -8.656547   -0.506843
  H     15.566468   -9.590795   -0.670101
  H     17.997781  -11.136742   -0.899811
  H     18.206557  -10.336520    0.663762
  H     15.125919  -13.358643   -0.102814
  H     14.945496  -14.990935    0.681801
  H     16.479672  -13.967068    0.831894
  H     13.728691  -14.977601    2.386669
  H     13.042731  -12.122070    5.072781
  H     14.155536  -10.588970    3.549511
  H     14.764298   -9.626154    5.749569
  H     16.375923   -9.661304    7.644311
  H     18.081344  -11.166014    7.830736
  H     19.187743  -12.900845    6.875834
  H     16.670285  -13.240791    4.361567

 Total Charge           Charge          ....    0
 Multiplicity           Mult            ....    1
 Number of Electrons    NEL             ....  154
 Basis Dimension        Dim             ....  120

ORBITAL ENERGIES
----------------

  NO   OCC          E(Eh)            E(eV)
   0   2.0000     -90.534587     -2463.5714
   1   2.0000     -20.301927      -552.4435
   2   2.0000     -20.276651      -551.7557
   3   2.0000     -20.203329      -549.7605
   4   2.0000     -15.442487      -420.2114
   5   2.0000     -15.393637      -418.8821
   6   2.0000     -11.161928      -303.7315
   7   2.0000     -11.130311      -302.8712
   8   2.0000     -11.130135      -302.8664
   9   2.0000     -11.123258      -302.6792
  10   2.0000     -11.116950      -302.5076
  11   2.0000     -11.095966      -301.9366
  12   2.0000     -11.082517      -301.5706
  13   2.0000     -11.052610      -300.7568
  14   2.0000     -11.044627      -300.5396
  15   2.0000     -11.033969      -300.2496
  16   2.0000     -11.024973      -300.0048
  17   2.0000     -11.021235      -299.9031
  18   2.0000     -11.020970      -299.8958
  19   2.0000     -11.020866      -299.8930
  20   2.0000      -8.461794      -230.2571
  21   2.0000      -6.093350      -165.8085
  22   2.0000      -6.090301      -165.7255
  23   2.0000      -6.089051      -165.6915
  24   2.0000      -1.384334       -37.6696
  25   2.0000      -1.311158       -35.6784
  26   2.0000      -1.302042       -35.4304
  27   2.0000      -1.250414       -34.0255
  28   2.0000      -1.201242       -32.6874
  29   2.0000      -1.097552       -29.8659
  30   2.0000      -1.053087       -28.6559
  31   2.0000      -1.000976       -27.2380
  32   2.0000      -0.982565       -26.7370
  33   2.0000      -0.949545       -25.8384
  34   2.0000      -0.946929       -25.7673
  35   2.0000      -0.892895       -24.2969
  36   2.0000      -0.855235       -23.2721
  37   2.0000      -0.843336       -22.9483
  38   2.0000      -0.776110       -21.1190
  39   2.0000      -0.773515       -21.0484
  40   2.0000      -0.764287       -20.7973
  41   2.0000      -0.733528       -19.9603
  42   2.0000      -0.680418       -18.5151
  43   2.0000      -0.671449       -18.2710
  44   2.0000      -0.663338       -18.0503
  45   2.0000      -0.637594       -17.3498
  46   2.0000      -0.626157       -17.0386
  47   2.0000      -0.622308       -16.9339
  48   2.0000      -0.613623       -16.6975
  49   2.0000      -0.597857       -16.2685
  50   2.0000      -0.583797       -15.8859
  51   2.0000      -0.575721       -15.6662
  52   2.0000      -0.564008       -15.3474
  53   2.0000      -0.558988       -15.2108
  54   2.0000      -0.553260       -15.0550
  55   2.0000      -0.548202       -14.9173
  56   2.0000      -0.541013       -14.7217
  57   2.0000      -0.517827       -14.0908
  58   2.0000      -0.516592       -14.0572
  59   2.0000      -0.507682       -13.8147
  60   2.0000      -0.484691       -13.1891
  61   2.0000      -0.478413       -13.0183
  62   2.0000      -0.473647       -12.8886
  63   2.0000      -0.466828       -12.7030
  64   2.0000      -0.441804       -12.0221
  65   2.0000      -0.410245       -11.1633
  66   2.0000      -0.401817       -10.9340
  67   2.0000      -0.391632       -10.6568
  68   2.0000      -0.384361       -10.4590
  69   2.0000      -0.358964        -9.7679
  70   2.0000      -0.325892        -8.8680
  71   2.0000      -0.316284        -8.6065
  72   2.0000      -0.281304        -7.6547
  73   2.0000      -0.253988        -6.9114
  74   2.0000      -0.248283        -6.7561
  75   2.0000      -0.166255        -4.5240
  76   2.0000      -0.153422        -4.1748
  77   0.0000       0.200459         5.4548
  78   0.0000       0.258951         7.0464
  79   0.0000       0.279035         7.5929
  80   0.0000       0.299826         8.1587
  81   0.0000       0.391252        10.6465

MULLIKEN ATOMIC CHARGES
-----------------------
   0 C :   -0.185294
   1 C :    0.034719
   2 O :   -0.290962
   3 C :    0.303865
   4 O :   -0.293970
   5 C :   -0.067464
   6 C :    0.158908
   7 C :   -0.177799
   8 N :   -0.352897
   9 C :    0.188571
  10 S :   -0.205085
  11 N :   -0.344292
  12 C :    0.064313
  13 C :    0.022365
  14 C :   -0.089310
  15 C :   -0.045653
  16 C :   -0.108222
  17 C :    0.135907
  18 O :   -0.308515
  19 C :   -0.095836
  20 H :    0.063436
  21 H :    0.074723
  22 H :    0.077675
  23 H :    0.076210
  24 H :    0.075557
  25 H :    0.094168
  26 H :    0.068470
  27 H :    0.097518
  28 H :    0.245089
  29 H :    0.236338
  30 H :    0.084077
  31 H :    0.062704
  32 H :    0.062036
  33 H :    0.060756
  34 H :    0.212686
  35 H :    0.065207
Sum of atomic charges:    0.0000000

LOEWDIN ATOMIC CHARGES
----------------------
   0 C :   -0.097975
   1 C :    0.077892
   2 O :   -0.188039
   3 C :    0.223920
   4 O :   -0.259972
   5 C :   -0.112312
   6 C :    0.124036
   7 C :   -0.085539
   8 N :   -0.146230
   9 C :    0.110147
  10 S :   -0.242375
  11 N :   -0.171915
  12 C :    0.078686
  13 C :    0.024668
  14 C :   -0.066783
  15 C :   -0.009300
  16 C :   -0.089553
  17 C :    0.120083
  18 O :   -0.204382
  19 C :   -0.082460
  20 H :    0.032144
  21 H :    0.042765
  22 H :    0.044806
  23 H :    0.037770
  24 H :    0.035778
  25 H :    0.057727
  26 H :    0.037456
  27 H :    0.060599
  28 H :    0.170037
  29 H :    0.162894
  30 H :    0.040932
  31 H :    0.031069
  32 H :    0.029598
  33 H :    0.031060
  34 H :    0.149197
  35 H :    0.033571

  Mayer bond orders larger than 0.100000
B(  0-C ,  1-C ) :   0.9878 B(  0-C , 20-H ) :   0.9846 B(  0-C , 21-H ) :   0.9836
B(  0-C , 22-H ) :   0.9797 B(  1-C ,  2-O ) :   0.9158 B(  1-C , 23-H ) :   0.9705
B(  1-C , 24-H ) :   0.9671 B(  2-O ,  3-C ) :   1.0418 B(  2-O ,  4-O ) :   0.1623
B(  3-C ,  4-O ) :   1.8049 B(  3-C ,  5-C ) :   1.0045 B(  5-C ,  6-C ) :   1.6997
B(  5-C , 12-C ) :   0.9813 B(  6-C ,  7-C ) :   0.9909 B(  6-C ,  8-N ) :   1.1028
B(  7-C , 25-H ) :   0.9727 B(  7-C , 26-H ) :   0.9793 B(  7-C , 27-H ) :   0.9718
B(  8-N ,  9-C ) :   1.1188 B(  8-N , 28-H ) :   0.8978 B(  9-C , 10-S ) :   1.2455
B(  9-C , 11-N ) :   1.2222 B( 11-N , 12-C ) :   0.9427 B( 11-N , 29-H ) :   0.9019
B( 12-C , 13-C ) :   0.9572 B( 12-C , 30-H ) :   0.9488 B( 13-C , 14-C ) :   1.4348
B( 13-C , 16-C ) :   0.1076 B( 13-C , 19-C ) :   1.3982 B( 14-C , 15-C ) :   1.4141
B( 14-C , 31-H ) :   0.9699 B( 15-C , 16-C ) :   1.4499 B( 15-C , 19-C ) :   0.1158
B( 15-C , 32-H ) :   0.9723 B( 16-C , 17-C ) :   1.3815 B( 16-C , 33-H ) :   0.9703
B( 17-C , 18-O ) :   1.0189 B( 17-C , 19-C ) :   1.4006 B( 18-O , 34-H ) :   0.9221
B( 19-C , 35-H ) :   0.9680

FINAL SINGLE POINT ENERGY     -1255.027441487838

DIPOLE MOMENT
-------------
                                X             Y             Z
Electronic contribution:     -9.14861      -7.79626      12.71008
Nuclear contribution   :     10.45362       8.21334     -13.73041
                        -----------------------------------------
Total Dipole Moment    :      1.30501       0.41708      -1.02034
                        -----------------------------------------
Magnitude (a.u.)       :      1.70824
Magnitude (Debye)      :      4.34200

Rotational constants in cm-1:     0.010568     0.008583     0.005822
Rotational constants in MHz :   316.807157   257.319530   174.530766

                             ****ORCA TERMINATED NORMALLY****
TOTAL RUN TIME: 0 days 0 hours 1 minutes 36 seconds 859 msec
