                         Program Version 5.0.0 -  RELEASE  -
|  1> ! HF STO-3G TightSCF KeepDens NoKeepInts
|  2>
|  3> %pointcharges "srfp_output"
|  4>
|  5> *xyz  0  1
|  6>     C    16.6436530   -9.5814510   -0.8365118
|  7>     C    17.4758984  -10.6222675   -0.0929322
|  8>     O    16.6230464  -11.4814942    0.6261052
|  9>     C    16.0235215  -11.1081774    1.7359824
| 10>     O    16.0080225   -9.9179330    2.1587631
| 11>     C    15.1629785  -12.1100163    2.4234731
| 12>     C    14.8396632  -13.3770832    2.0289793
| 13>     C    15.3942554  -13.9991510    0.7373316
| 14>     N    14.0416277  -14.0984269    2.7729633
| 15>     C    13.3706618  -13.6791237    3.8655599
| 16>     S    11.9673991  -14.6298022    4.6003871
| 17>     N    13.5500932  -12.3810264    4.2387398
| 18>     C    14.5684976  -11.5837140    3.7169858
| 19>     C    15.5363876  -11.4725871    4.8974084
| 20>     C    15.4238979  -10.4746017    5.8566432
| 21>     C    16.3137428  -10.4711488    6.9324918
| 22>     C    17.3508831  -11.3665971    7.0609350
| 23>     C    17.4559063  -12.3377865    6.1165616
| 24>     O    18.5724354  -13.1597544    6.1859331
| 25>     C    16.5727175  -12.4241340    5.0615384
| 26>     H    16.7779524   -9.7128833   -1.9101891
| 27>     H    17.1169084   -8.6565469   -0.5068427
| 28>     H    15.5664683   -9.5907953   -0.6701014
| 29>     H    17.9977813  -11.1367423   -0.8998115
| 30>     H    18.2065573  -10.3365196    0.6637618
| 31>     H    15.1259190  -13.3586426   -0.1028140
| 32>     H    14.9454960  -14.9909346    0.6818010
| 33>     H    16.4796720  -13.9670685    0.8318941
| 34>     H    13.7286914  -14.9776011    2.3866687
| 35>     H    13.0427310  -12.1220702    5.0727813
| 36>     H    14.1555359  -10.5889704    3.5495106
| 37>     H    14.7642980   -9.6261542    5.7495687
| 38>     H    16.3759228   -9.6613045    7.6443106
| 39>     H    18.0813445  -11.1660145    7.8307355
| 40>     H    19.1877427  -12.9008447    6.8758338
| 41>     H    16.6702854  -13.2407911    4.3615667
| 42> *
| 43>
| 44>                          ****END OF INPUT****

CARTESIAN COORDINATES (ANGSTROEM)
---------------------------------
  C     16.643653   -9.581451   -0.836512
  C     17.475898  -10.622267   -0.092932
  O     16.623046  -11.481494    0.626105
  C     16.023522  -11.108177    1.735982
  O     16.008022   -9.917933    2.158763
  C     15.162978  -12.110016    2.423473
  C     14.839663  -13.377083    2.028979
  C     15.394255  -13.999151    0.737332
  N     14.041628  -14.098427    2.772963
  C     13.370662  -13.679124    3.865560
  S     11.967399  -14.629802    4.600387
  N     13.550093  -12.381026    4.238740
  C     14.568498  -11.583714    3.716986
  C     15.536388  -11.472587    4.897408
  C     15.423898  -10.474602    5.856643
  C     16.313743  -10.471149    6.932492
  C     17.350883  -11.366597    7.060935
  C     17.455906  -12.337786    6.116562
  O     18.572435  -13.159754    6.185933
  C     16.572717  -12.424134    5.061538
  H     16.777952   -9.712883   -1.910189
  H     17.116908   -8.656547   -0.506843
  H     15.566468   -9.590795   -0.670101
  H     17.997781  -11.136742   -0.899811
  H     18.206557  -10.336520    0.663762
  H     15.125919  -13.358643   -0.102814
  H     14.945496  -14.990935    0.681801
  H     16.479672  -13.967068    0.831894
  H     13.728691  -14.977601    2.386669
  H     13.042731  -12.122070    5.072781
  H     14.155536  -10.588970    3.549511
  H     14.764298   -9.626154    5.749569
  H     16.375923   -9.661304    7.644311
  H     18.081344  -11.166014    7.830736
  H     19.187743  -12.900845    6.875834
  H     16.670285  -13.240791    4.361567

 Total Charge           Charge          ....    0
 Multiplicity           Mult            ....    1
 Number of Electrons    NEL             ....  154
 Basis Dimension        Dim             ....  120

ORBITAL ENERGIES
----------------

  NO   OCC          E(Eh)            E(eV)
   0   2.0000     -91.672622     -2494.5389
   1   2.0000     -21.457255      -583.8816
   2   2.0000     -21.399960      -582.3225
   3   2.0000     -21.334646      -580.5452
   4   2.0000     -16.585857      -451.3241
   5   2.0000     -16.540307      -450.0846
   6   2.0000     -12.326751      -335.4279
   7   2.0000     -12.289877      -334.4245
   8   2.0000     -12.278559      -334.1166
   9   2.0000     -12.262827      -333.6885
  10   2.0000     -12.260530      -333.6260
  11   2.0000     -12.237295      -332.9937
  12   2.0000     -12.214720      -332.3794
  13   2.0000     -12.190709      -331.7261
  14   2.0000     -12.188079      -331.6545
  15   2.0000     -12.175941      -331.3242
  16   2.0000     -12.169006      -331.1355
  17   2.0000     -12.164833      -331.0219
  18   2.0000     -12.163224      -330.9782
  19   2.0000     -12.163173      -330.9768
  20   2.0000      -9.605123      -261.3687
  21   2.0000      -7.236889      -196.9258
  22   2.0000      -7.234008      -196.8474
  23   2.0000      -7.232199      -196.7981
  24   2.0000      -2.535792       -69.0024
  25   2.0000      -2.449256       -66.6476
  26   2.0000      -2.447535       -66.6008
  27   2.0000      -2.407834       -65.5205
  28   2.0000      -2.345396       -63.8215
  29   2.0000      -2.243719       -61.0547
  30   2.0000      -2.197858       -59.8067
  31   2.0000      -2.141964       -58.2858
  32   2.0000      -2.124090       -57.7994
  33   2.0000      -2.095315       -57.0164
  34   2.0000      -2.086925       -56.7881
  35   2.0000      -2.038520       -55.4709
  36   2.0000      -1.997941       -54.3667
  37   2.0000      -1.985233       -54.0209
  38   2.0000      -1.920213       -52.2516
  39   2.0000      -1.916450       -52.1493
  40   2.0000      -1.907540       -51.9068
  41   2.0000      -1.886015       -51.3211
  42   2.0000      -1.825676       -49.6792
  43   2.0000      -1.816630       -49.4330
  44   2.0000      -1.804897       -49.1137
  45   2.0000      -1.777848       -48.3777
  46   2.0000      -1.767628       -48.0996
  47   2.0000      -1.761807       -47.9412
  48   2.0000      -1.753673       -47.7199
  49   2.0000      -1.744918       -47.4816
  50   2.0000      -1.723424       -46.8968
  51   2.0000      -1.719912       -46.8012
  52   2.0000      -1.706780       -46.4439
  53   2.0000      -1.699075       -46.2342
  54   2.0000      -1.693023       -46.0695
  55   2.0000      -1.687962       -45.9318
  56   2.0000      -1.684203       -45.8295
  57   2.0000      -1.664278       -45.2873
  58   2.0000      -1.658452       -45.1288
  59   2.0000      -1.653035       -44.9814
  60   2.0000      -1.628342       -44.3094
  61   2.0000      -1.627204       -44.2785
  62   2.0000      -1.617020       -44.0013
  63   2.0000      -1.607383       -43.7391
  64   2.0000      -1.583523       -43.0898
  65   2.0000      -1.555483       -42.3268
  66   2.0000      -1.545217       -42.0475
  67   2.0000      -1.536906       -41.8213
  68   2.0000      -1.533103       -41.7179
  69   2.0000      -1.518465       -41.3195
  70   2.0000      -1.483301       -40.3627
  71   2.0000      -1.471999       -40.0551
  72   2.0000      -1.429116       -38.8882
  73   2.0000      -1.400323       -38.1047
  74   2.0000      -1.395873       -37.9836
  75   2.0000      -1.323410       -36.0118
  76   2.0000      -1.320605       -35.9355
  77   0.0000      -0.952547       -25.9201
  78   0.0000      -0.888596       -24.1799
  79   0.0000      -0.867276       -23.5998
  80   0.0000      -0.852696       -23.2030
  81   0.0000      -0.759088       -20.6558

MULLIKEN ATOMIC CHARGES
-----------------------
   0 C :   -0.188903
   1 C :    0.034055
   2 O :   -0.275017
   3 C :    0.331750
   4 O :   -0.386669
   5 C :   -0.073187
   6 C :    0.176054
   7 C :   -0.179892
   8 N :   -0.356314
   9 C :    0.196971
  10 S :   -0.296269
  11 N :   -0.351055
  12 C :    0.062147
  13 C :    0.006146
  14 C :   -0.096496
  15 C :   -0.048295
  16 C :   -0.106472
  17 C :    0.115357
  18 O :   -0.363348
  19 C :   -0.121337
  20 H :    0.070830
  21 H :    0.075406
  22 H :    0.076521
  23 H :    0.091027
  24 H :    0.075685
  25 H :    0.087998
  26 H :    0.082547
  27 H :    0.109834
  28 H :    0.283688
  29 H :    0.287798
  30 H :    0.093268
  31 H :    0.080240
  32 H :    0.072148
  33 H :    0.080144
  34 H :    0.289370
  35 H :    0.064268
Sum of atomic charges:   -0.0000000

LOEWDIN ATOMIC CHARGES
----------------------
   0 C :   -0.100467
   1 C :    0.078442
   2 O :   -0.171372
   3 C :    0.256457
   4 O :   -0.352313
   5 C :   -0.120560
   6 C :    0.144077
   7 C :   -0.086268
   8 N :   -0.145305
   9 C :    0.124808
  10 S :   -0.333271
  11 N :   -0.169688
  12 C :    0.076950
  13 C :    0.010104
  14 C :   -0.070506
  15 C :   -0.009539
  16 C :   -0.084797
  17 C :    0.102517
  18 O :   -0.249221
  19 C :   -0.106055
  20 H :    0.038086
  21 H :    0.043210
  22 H :    0.043902
  23 H :    0.049454
  24 H :    0.035889
  25 H :    0.053208
  26 H :    0.048292
  27 H :    0.070077
  28 H :    0.200246
  29 H :    0.202912
  30 H :    0.048128
  31 H :    0.044286
  32 H :    0.037236
  33 H :    0.045722
  34 H :    0.212743
  35 H :    0.032618

  Mayer bond orders larger than 0.100000
B(  0-C ,  1-C ) :   0.9878 B(  0-C , 20-H ) :   0.9840 B(  0-C , 21-H ) :   0.9834
B(  0-C , 22-H ) :   0.9796 B(  1-C ,  2-O ) :   0.9064 B(  1-C , 23-H ) :   0.9687
B(  1-C , 24-H ) :   0.9671 B(  2-O ,  3-C ) :   1.0793 B(  2-O ,  4-O ) :   0.1638
B(  3-C ,  4-O ) :   1.7440 B(  3-C ,  5-C ) :   1.0127 B(  5-C ,  6-C ) :   1.6857
B(  5-C , 12-C ) :   0.9811 B(  6-C ,  7-C ) :   0.9901 B(  6-C ,  8-N ) :   1.1109
B(  7-C , 25-H ) :   0.9732 B(  7-C , 26-H ) :   0.9777 B(  7-C , 27-H ) :   0.9687
B(  8-N ,  9-C ) :   1.1451 B(  8-N , 28-H ) :   0.8793 B(  9-C , 10-S ) :   1.1607
B(  9-C , 11-N ) :   1.2737 B( 11-N , 12-C ) :   0.9430 B( 11-N , 29-H ) :   0.8770
B( 12-C , 13-C ) :   0.9565 B( 12-C , 30-H ) :   0.9473 B( 13-C , 14-C ) :   1.4406
B( 13-C , 16-C ) :   0.1088 B( 13-C , 19-C ) :   1.3920 B( 14-C , 15-C ) :   1.4088
B( 14-C , 31-H ) :   0.9675 B( 15-C , 16-C ) :   1.4548 B( 15-C , 19-C ) :   0.1145
B( 15-C , 32-H ) :   0.9710 B( 16-C , 17-C ) :   1.3776 B( 16-C , 33-H ) :   0.9681
B( 17-C , 18-O ) :   1.0300 B( 17-C , 19-C ) :   1.4019 B( 18-O , 34-H ) :   0.8861
B( 19-C , 35-H ) :   0.9676

FINAL SINGLE POINT ENERGY     -1255.121217973128

DIPOLE MOMENT
-------------
                                X             Y             Z
Electronic contribution:     -8.69068      -7.82971      12.62962
Nuclear contribution   :     10.45362       8.21334     -13.73041
                        -----------------------------------------
Total Dipole Moment    :      1.76294       0.38362      -1.10079
                        -----------------------------------------
Magnitude (a.u.)       :      2.11350
Magnitude (Debye)      :      5.37209

Rotational constants in cm-1:     0.010568     0.008583     0.005822
Rotational constants in MHz :   316.807157   257.319530   174.530766

                             ****ORCA TERMINATED NORMALLY****
TOTAL RUN TIME: 0 days 0 hours 1 minutes 40 seconds 987 msec
