                         Program Version 5.0.0 -  RELEASE  -
|  1> ! RI-MP2 cc-pVTZ cc-pVTZ/c TightSCF KeepDens NoKeepInts
|  2>
|  3> %pointcharges "srfp_output"
|  4>
|  5> *xyz  0  1
|  6>     C     9.2091587    4.0408525    0.1496634
|  7>     C     9.6078092    5.4855186    0.3568188
|  8>     O    10.7433056    5.6308083    1.2798804
|  9>     C    11.0157443    6.7873189    1.8520218
| 10>     O    10.2908354    7.7151726    1.6009806
| 11>     C    12.3457514    6.8421211    2.5977948
| 12>     C    12.8901512    7.9912808    3.0955204
| 13>     C    12.2869750    9.3942470    2.9844356
| 14>     N    14.1606702    8.0329552    3.7004816
| 15>     C    15.0073473    6.9175852    3.7264332
| 16>     S    16.5541110    7.0026163    4.2701376
| 17>     N    14.4061968    5.7247128    3.2904060
| 18>     C    13.0430771    5.5240329    2.8093821
| 19>     C    12.2128366    4.6174681    3.8075355
| 20>     C    11.8762776    3.2386203    3.5172925
| 21>     C    11.1462390    2.5215881    4.4518937
| 22>     C    10.8161108    3.0660914    5.7048928
| 23>     C    11.1064016    4.4118998    6.0113998
| 24>     O    10.9717431    4.8215112    7.2619749
| 25>     C    11.8224651    5.1847481    5.0511993
| 26>     H     8.3911334    4.0372236   -0.5810940
| 27>     H     8.8528597    3.4454326    0.9992022
| 28>     H    10.0595079    3.4753441   -0.2507067
| 29>     H     9.8489642    5.9009913   -0.6292931
| 30>     H     8.7250025    5.9935456    0.7639432
| 31>     H    11.1912466    9.4419312    3.0016855
| 32>     H    12.5662193    9.9064556    2.0555359
| 33>     H    12.6308685   10.0830152    3.7658039
| 34>     H    14.6359414    8.8959626    3.9356455
| 35>     H    14.9667638    4.8849017    3.2100592
| 36>     H    13.0890248    4.9290624    1.8890070
| 37>     H    12.1531678    2.7752486    2.5749472
| 38>     H    10.8860547    1.5154944    4.1364922
| 39>     H    10.3878421    2.4070671    6.4543439
| 40>     H    11.0787944    5.7876994    7.3038159
| 41>     H    12.1786228    6.1930051    5.2408452
| 42> *
| 43>
| 44>                          ****END OF INPUT****

CARTESIAN COORDINATES (ANGSTROEM)
---------------------------------
  C      9.209159    4.040852    0.149663
  C      9.607809    5.485519    0.356819
  O     10.743306    5.630808    1.279880
  C     11.015744    6.787319    1.852022
  O     10.290835    7.715173    1.600981
  C     12.345751    6.842121    2.597795
  C     12.890151    7.991281    3.095520
  C     12.286975    9.394247    2.984436
  N     14.160670    8.032955    3.700482
  C     15.007347    6.917585    3.726433
  S     16.554111    7.002616    4.270138
  N     14.406197    5.724713    3.290406
  C     13.043077    5.524033    2.809382
  C     12.212837    4.617468    3.807536
  C     11.876278    3.238620    3.517292
  C     11.146239    2.521588    4.451894
  C     10.816111    3.066091    5.704893
  C     11.106402    4.411900    6.011400
  O     10.971743    4.821511    7.261975
  C     11.822465    5.184748    5.051199
  H      8.391133    4.037224   -0.581094
  H      8.852860    3.445433    0.999202
  H     10.059508    3.475344   -0.250707
  H      9.848964    5.900991   -0.629293
  H      8.725003    5.993546    0.763943
  H     11.191247    9.441931    3.001685
  H     12.566219    9.906456    2.055536
  H     12.630868   10.083015    3.765804
  H     14.635941    8.895963    3.935646
  H     14.966764    4.884902    3.210059
  H     13.089025    4.929062    1.889007
  H     12.153168    2.775249    2.574947
  H     10.886055    1.515494    4.136492
  H     10.387842    2.407067    6.454344
  H     11.078794    5.787699    7.303816
  H     12.178623    6.193005    5.240845

 Total Charge           Charge          ....    0
 Multiplicity           Mult            ....    1
 Number of Electrons    NEL             ....  154
 Basis Dimension        Dim             ....  828

ORBITAL ENERGIES
----------------

  NO   OCC          E(Eh)            E(eV)
   0   2.0000     -89.686360     -2440.4899
   1   2.0000     -18.382948      -500.2254
   2   2.0000     -18.373084      -499.9570
   3   2.0000     -18.326479      -498.6888
   4   2.0000     -13.402472      -364.6998
   5   2.0000     -13.383632      -364.1871
   6   2.0000      -9.180406      -249.8115
   7   2.0000      -9.179438      -249.7852
   8   2.0000      -9.113775      -247.9984
   9   2.0000      -9.094705      -247.4795
  10   2.0000      -9.080777      -247.1005
  11   2.0000      -9.071943      -246.8601
  12   2.0000      -9.041552      -246.0331
  13   2.0000      -9.037534      -245.9238
  14   2.0000      -9.021858      -245.4972
  15   2.0000      -9.018960      -245.4184
  16   2.0000      -9.014019      -245.2839
  17   2.0000      -9.012187      -245.2341
  18   2.0000      -9.011504      -245.2155
  19   2.0000      -8.994502      -244.7528
  20   2.0000      -6.692765      -182.1194
  21   2.0000      -4.374659      -119.0405
  22   2.0000      -4.372643      -118.9857
  23   2.0000      -4.372116      -118.9713
  24   2.0000       0.743601        20.2344
  25   2.0000       0.793907        21.6033
  26   2.0000       0.857721        23.3398
  27   2.0000       0.898002        24.4359
  28   2.0000       0.997407        27.1408
  29   2.0000       1.076249        29.2862
  30   2.0000       1.106468        30.1085
  31   2.0000       1.178820        32.0773
  32   2.0000       1.194861        32.5138
  33   2.0000       1.215118        33.0650
  34   2.0000       1.224840        33.3296
  35   2.0000       1.239453        33.7272
  36   2.0000       1.307797        35.5870
  37   2.0000       1.334842        36.3229
  38   2.0000       1.380150        37.5558
  39   2.0000       1.386479        37.7280
  40   2.0000       1.404926        38.2300
  41   2.0000       1.417033        38.5594
  42   2.0000       1.454435        39.5772
  43   2.0000       1.482123        40.3306
  44   2.0000       1.501283        40.8520
  45   2.0000       1.524688        41.4889
  46   2.0000       1.534194        41.7476
  47   2.0000       1.538405        41.8621
  48   2.0000       1.549008        42.1506
  49   2.0000       1.559371        42.4326
  50   2.0000       1.577667        42.9305
  51   2.0000       1.589187        43.2440
  52   2.0000       1.593185        43.3528
  53   2.0000       1.608493        43.7693
  54   2.0000       1.620292        44.0904
  55   2.0000       1.623470        44.1769
  56   2.0000       1.642305        44.6894
  57   2.0000       1.649618        44.8884
  58   2.0000       1.656218        45.0680
  59   2.0000       1.664068        45.2816
  60   2.0000       1.676246        45.6130
  61   2.0000       1.680092        45.7176
  62   2.0000       1.688712        45.9522
  63   2.0000       1.692296        46.0497
  64   2.0000       1.705370        46.4055
  65   2.0000       1.709682        46.5228
  66   2.0000       1.727541        47.0088
  67   2.0000       1.729711        47.0678
  68   2.0000       1.741682        47.3936
  69   2.0000       1.755230        47.7622
  70   2.0000       1.763337        47.9828
  71   2.0000       1.770579        48.1799
  72   2.0000       1.865777        50.7704
  73   2.0000       1.869089        50.8605
  74   2.0000       1.875455        51.0337
  75   2.0000       1.895223        51.5716
  76   2.0000       1.906318        51.8736
  77   0.0000       2.296087        62.4797
  78   0.0000       2.333355        63.4938
  79   0.0000       2.357979        64.1639
  80   0.0000       2.367508        64.4232
  81   0.0000       2.373271        64.5800

MULLIKEN ATOMIC CHARGES
-----------------------
   0 C :   -0.281757
   1 C :    0.044442
   2 O :   -0.326040
   3 C :    0.488568
   4 O :   -0.548773
   5 C :   -0.223105
   6 C :    0.150758
   7 C :   -0.291362
   8 N :   -0.163261
   9 C :    0.318220
  10 S :   -0.582708
  11 N :   -0.240841
  12 C :    0.079125
  13 C :   -0.027207
  14 C :   -0.200504
  15 C :   -0.120545
  16 C :   -0.284756
  17 C :    0.261264
  18 O :   -0.412102
  19 C :   -0.316452
  20 H :    0.111934
  21 H :    0.112083
  22 H :    0.097678
  23 H :    0.110713
  24 H :    0.109649
  25 H :    0.126787
  26 H :    0.136225
  27 H :    0.125725
  28 H :    0.260483
  29 H :    0.246805
  30 H :    0.173104
  31 H :    0.184534
  32 H :    0.186845
  33 H :    0.173877
  34 H :    0.329122
  35 H :    0.191472
Sum of atomic charges:    0.0000000

LOEWDIN ATOMIC CHARGES
----------------------
   0 C :    0.106701
   1 C :    0.013661
   2 O :    0.329551
   3 C :   -0.462163
   4 O :    0.034053
   5 C :   -0.098669
   6 C :   -0.045532
   7 C :    0.132320
   8 N :    0.403769
   9 C :   -0.406421
  10 S :   -0.119705
  11 N :    0.398548
  12 C :   -0.063722
  13 C :   -0.020589
  14 C :    0.013425
  15 C :    0.026240
  16 C :   -0.006075
  17 C :   -0.241820
  18 O :    0.389637
  19 C :    0.005199
  20 H :   -0.010248
  21 H :   -0.022625
  22 H :   -0.024507
  23 H :   -0.018801
  24 H :   -0.025221
  25 H :   -0.016314
  26 H :   -0.005509
  27 H :   -0.009540
  28 H :   -0.028860
  29 H :   -0.039740
  30 H :   -0.006683
  31 H :   -0.021538
  32 H :   -0.010593
  33 H :   -0.025855
  34 H :   -0.097570
  35 H :   -0.024805

  Mayer bond orders larger than 0.100000
B(  0-C ,  1-C ) :   0.9791 B(  0-C , 20-H ) :   0.9733 B(  0-C , 21-H ) :   0.9736
B(  0-C , 22-H ) :   0.9763 B(  1-C ,  2-O ) :   0.8583 B(  1-C , 23-H ) :   0.9748
B(  1-C , 24-H ) :   0.9738 B(  2-O ,  3-C ) :   1.2555 B(  3-C ,  4-O ) :   1.9037
B(  3-C ,  5-C ) :   1.0708 B(  5-C ,  6-C ) :   1.6377 B(  5-C , 12-C ) :   0.9629
B(  6-C ,  7-C ) :   0.9664 B(  6-C ,  8-N ) :   1.1646 B(  7-C , 25-H ) :   0.9674
B(  7-C , 26-H ) :   0.9571 B(  7-C , 27-H ) :   0.9778 B(  8-N ,  9-C ) :   1.2129
B(  8-N , 28-H ) :   0.9185 B(  9-C , 10-S ) :   1.4658 B(  9-C , 11-N ) :   1.3408
B( 11-N , 12-C ) :   0.9831 B( 11-N , 29-H ) :   0.9297 B( 12-C , 13-C ) :   0.9217
B( 12-C , 30-H ) :   0.9958 B( 13-C , 14-C ) :   1.3272 B( 13-C , 19-C ) :   1.3466
B( 14-C , 15-C ) :   1.4190 B( 14-C , 31-H ) :   0.9616 B( 15-C , 16-C ) :   1.3351
B( 15-C , 32-H ) :   0.9650 B( 16-C , 17-C ) :   1.3676 B( 16-C , 33-H ) :   0.9619
B( 17-C , 18-O ) :   1.1435 B( 17-C , 19-C ) :   1.3390 B( 18-O , 34-H ) :   0.9080
B( 19-C , 35-H ) :   0.9581

MP2 TOTAL ENERGY:    -1274.422262653 Eh
FINAL SINGLE POINT ENERGY     -1274.422262652517

DIPOLE MOMENT
-------------
                                X             Y             Z
Electronic contribution:     13.22412       3.76736       8.72054
Nuclear contribution   :    -14.62708      -3.75483      -9.96656
                        -----------------------------------------
Total Dipole Moment    :     -1.40296       0.01253      -1.24602
                        -----------------------------------------
Magnitude (a.u.)       :      1.87644
Magnitude (Debye)      :      4.76953

Rotational constants in cm-1:     0.010993     0.008323     0.006034
Rotational constants in MHz :   329.563748   249.513270   180.885958

                             ****ORCA TERMINATED NORMALLY****
TOTAL RUN TIME: 0 days 1 hours 57 minutes 3 seconds 315 msec
