                         Program Version 5.0.0 -  RELEASE  -
|  1> ! RI-MP2 cc-pVTZ cc-pVTZ/c TightSCF KeepDens NoKeepInts
|  2>
|  3> *xyz  0  1
|  4>     C     9.2091587    4.0408525    0.1496634
|  5>     C     9.6078092    5.4855186    0.3568188
|  6>     O    10.7433056    5.6308083    1.2798804
|  7>     C    11.0157443    6.7873189    1.8520218
|  8>     O    10.2908354    7.7151726    1.6009806
|  9>     C    12.3457514    6.8421211    2.5977948
| 10>     C    12.8901512    7.9912808    3.0955204
| 11>     C    12.2869750    9.3942470    2.9844356
| 12>     N    14.1606702    8.0329552    3.7004816
| 13>     C    15.0073473    6.9175852    3.7264332
| 14>     S    16.5541110    7.0026163    4.2701376
| 15>     N    14.4061968    5.7247128    3.2904060
| 16>     C    13.0430771    5.5240329    2.8093821
| 17>     C    12.2128366    4.6174681    3.8075355
| 18>     C    11.8762776    3.2386203    3.5172925
| 19>     C    11.1462390    2.5215881    4.4518937
| 20>     C    10.8161108    3.0660914    5.7048928
| 21>     C    11.1064016    4.4118998    6.0113998
| 22>     O    10.9717431    4.8215112    7.2619749
| 23>     C    11.8224651    5.1847481    5.0511993
| 24>     H     8.3911334    4.0372236   -0.5810940
| 25>     H     8.8528597    3.4454326    0.9992022
| 26>     H    10.0595079    3.4753441   -0.2507067
| 27>     H     9.8489642    5.9009913   -0.6292931
| 28>     H     8.7250025    5.9935456    0.7639432
| 29>     H    11.1912466    9.4419312    3.0016855
| 30>     H    12.5662193    9.9064556    2.0555359
| 31>     H    12.6308685   10.0830152    3.7658039
| 32>     H    14.6359414    8.8959626    3.9356455
| 33>     H    14.9667638    4.8849017    3.2100592
| 34>     H    13.0890248    4.9290624    1.8890070
| 35>     H    12.1531678    2.7752486    2.5749472
| 36>     H    10.8860547    1.5154944    4.1364922
| 37>     H    10.3878421    2.4070671    6.4543439
| 38>     H    11.0787944    5.7876994    7.3038159
| 39>     H    12.1786228    6.1930051    5.2408452
| 40> *
| 41>
| 42>                          ****END OF INPUT****

CARTESIAN COORDINATES (ANGSTROEM)
---------------------------------
  C      9.209159    4.040852    0.149663
  C      9.607809    5.485519    0.356819
  O     10.743306    5.630808    1.279880
  C     11.015744    6.787319    1.852022
  O     10.290835    7.715173    1.600981
  C     12.345751    6.842121    2.597795
  C     12.890151    7.991281    3.095520
  C     12.286975    9.394247    2.984436
  N     14.160670    8.032955    3.700482
  C     15.007347    6.917585    3.726433
  S     16.554111    7.002616    4.270138
  N     14.406197    5.724713    3.290406
  C     13.043077    5.524033    2.809382
  C     12.212837    4.617468    3.807536
  C     11.876278    3.238620    3.517292
  C     11.146239    2.521588    4.451894
  C     10.816111    3.066091    5.704893
  C     11.106402    4.411900    6.011400
  O     10.971743    4.821511    7.261975
  C     11.822465    5.184748    5.051199
  H      8.391133    4.037224   -0.581094
  H      8.852860    3.445433    0.999202
  H     10.059508    3.475344   -0.250707
  H      9.848964    5.900991   -0.629293
  H      8.725003    5.993546    0.763943
  H     11.191247    9.441931    3.001685
  H     12.566219    9.906456    2.055536
  H     12.630868   10.083015    3.765804
  H     14.635941    8.895963    3.935646
  H     14.966764    4.884902    3.210059
  H     13.089025    4.929062    1.889007
  H     12.153168    2.775249    2.574947
  H     10.886055    1.515494    4.136492
  H     10.387842    2.407067    6.454344
  H     11.078794    5.787699    7.303816
  H     12.178623    6.193005    5.240845

 Total Charge           Charge          ....    0
 Multiplicity           Mult            ....    1
 Number of Electrons    NEL             ....  154
 Basis Dimension        Dim             ....  828

ORBITAL ENERGIES
----------------

  NO   OCC          E(Eh)            E(eV)
   0   2.0000     -91.898798     -2500.6934
   1   2.0000     -20.600245      -560.5612
   2   2.0000     -20.598721      -560.5197
   3   2.0000     -20.530674      -558.6680
   4   2.0000     -15.632707      -425.3876
   5   2.0000     -15.609640      -424.7599
   6   2.0000     -11.395318      -310.0824
   7   2.0000     -11.387531      -309.8705
   8   2.0000     -11.339930      -308.5752
   9   2.0000     -11.315453      -307.9091
  10   2.0000     -11.308748      -307.7267
  11   2.0000     -11.302360      -307.5529
  12   2.0000     -11.264721      -306.5286
  13   2.0000     -11.264475      -306.5219
  14   2.0000     -11.250454      -306.1404
  15   2.0000     -11.245742      -306.0122
  16   2.0000     -11.241960      -305.9093
  17   2.0000     -11.236641      -305.7645
  18   2.0000     -11.234236      -305.6991
  19   2.0000     -11.232863      -305.6617
  20   2.0000      -8.903887      -242.2871
  21   2.0000      -6.585431      -179.1987
  22   2.0000      -6.583469      -179.1453
  23   2.0000      -6.582812      -179.1274
  24   2.0000      -1.468061       -39.9480
  25   2.0000      -1.429449       -38.8973
  26   2.0000      -1.349561       -36.7234
  27   2.0000      -1.329617       -36.1807
  28   2.0000      -1.231943       -33.5229
  29   2.0000      -1.145144       -31.1609
  30   2.0000      -1.117080       -30.3973
  31   2.0000      -1.051723       -28.6188
  32   2.0000      -1.029931       -28.0259
  33   2.0000      -1.007604       -27.4183
  34   2.0000      -0.994939       -27.0737
  35   2.0000      -0.989051       -26.9134
  36   2.0000      -0.918866       -25.0036
  37   2.0000      -0.892380       -24.2829
  38   2.0000      -0.845346       -23.0030
  39   2.0000      -0.839385       -22.8408
  40   2.0000      -0.821467       -22.3532
  41   2.0000      -0.807725       -21.9793
  42   2.0000      -0.767468       -20.8839
  43   2.0000      -0.742749       -20.2112
  44   2.0000      -0.721624       -19.6364
  45   2.0000      -0.695551       -18.9269
  46   2.0000      -0.684583       -18.6284
  47   2.0000      -0.676661       -18.4129
  48   2.0000      -0.676369       -18.4049
  49   2.0000      -0.663672       -18.0594
  50   2.0000      -0.646945       -17.6043
  51   2.0000      -0.640574       -17.4309
  52   2.0000      -0.631269       -17.1777
  53   2.0000      -0.613237       -16.6870
  54   2.0000      -0.604062       -16.4374
  55   2.0000      -0.599914       -16.3245
  56   2.0000      -0.587923       -15.9982
  57   2.0000      -0.576727       -15.6936
  58   2.0000      -0.568738       -15.4762
  59   2.0000      -0.565134       -15.3781
  60   2.0000      -0.554509       -15.0890
  61   2.0000      -0.550782       -14.9875
  62   2.0000      -0.538926       -14.6649
  63   2.0000      -0.522856       -14.2276
  64   2.0000      -0.520316       -14.1585
  65   2.0000      -0.515876       -14.0377
  66   2.0000      -0.497904       -13.5487
  67   2.0000      -0.495493       -13.4830
  68   2.0000      -0.477934       -13.0053
  69   2.0000      -0.460589       -12.5333
  70   2.0000      -0.456975       -12.4349
  71   2.0000      -0.443669       -12.0729
  72   2.0000      -0.354942        -9.6584
  73   2.0000      -0.346342        -9.4245
  74   2.0000      -0.335362        -9.1257
  75   2.0000      -0.320789        -8.7291
  76   2.0000      -0.311938        -8.4883
  77   0.0000       0.076436         2.0799
  78   0.0000       0.108721         2.9584
  79   0.0000       0.121851         3.3157
  80   0.0000       0.126849         3.4517
  81   0.0000       0.137888         3.7521

MULLIKEN ATOMIC CHARGES
-----------------------
   0 C :   -0.278586
   1 C :    0.060912
   2 O :   -0.334957
   3 C :    0.457895
   4 O :   -0.438572
   5 C :   -0.207975
   6 C :    0.138845
   7 C :   -0.297567
   8 N :   -0.155221
   9 C :    0.226246
  10 S :   -0.405834
  11 N :   -0.218610
  12 C :    0.046466
  13 C :    0.026150
  14 C :   -0.204511
  15 C :   -0.105667
  16 C :   -0.240185
  17 C :    0.295637
  18 O :   -0.333569
  19 C :   -0.291860
  20 H :    0.099349
  21 H :    0.108241
  22 H :    0.088285
  23 H :    0.095401
  24 H :    0.104987
  25 H :    0.145335
  26 H :    0.125034
  27 H :    0.094676
  28 H :    0.204084
  29 H :    0.191628
  30 H :    0.151512
  31 H :    0.148862
  32 H :    0.156342
  33 H :    0.157345
  34 H :    0.243789
  35 H :    0.146091
Sum of atomic charges:    0.0000000

LOEWDIN ATOMIC CHARGES
----------------------
   0 C :    0.102312
   1 C :    0.014103
   2 O :    0.322660
   3 C :   -0.474594
   4 O :    0.108770
   5 C :   -0.093684
   6 C :   -0.061858
   7 C :    0.125040
   8 N :    0.386114
   9 C :   -0.434592
  10 S :   -0.003454
  11 N :    0.383652
  12 C :   -0.071722
  13 C :   -0.009606
  14 C :    0.007398
  15 C :    0.028126
  16 C :    0.016195
  17 C :   -0.216235
  18 O :    0.423109
  19 C :    0.007652
  20 H :   -0.016249
  21 H :   -0.024038
  22 H :   -0.028069
  23 H :   -0.023185
  24 H :   -0.024689
  25 H :   -0.010121
  26 H :   -0.010050
  27 H :   -0.024235
  28 H :   -0.057312
  29 H :   -0.065305
  30 H :   -0.015199
  31 H :   -0.034564
  32 H :   -0.020953
  33 H :   -0.028016
  34 H :   -0.140001
  35 H :   -0.037405

  Mayer bond orders larger than 0.100000
B(  0-C ,  1-C ) :   0.9732 B(  0-C , 20-H ) :   0.9758 B(  0-C , 21-H ) :   0.9742
B(  0-C , 22-H ) :   0.9787 B(  1-C ,  2-O ) :   0.8780 B(  1-C , 23-H ) :   0.9785
B(  1-C , 24-H ) :   0.9760 B(  2-O ,  3-C ) :   1.2178 B(  3-C ,  4-O ) :   1.9623
B(  3-C ,  5-C ) :   1.0480 B(  5-C ,  6-C ) :   1.6698 B(  5-C , 12-C ) :   0.9677
B(  6-C ,  7-C ) :   0.9648 B(  6-C ,  8-N ) :   1.1503 B(  7-C , 25-H ) :   0.9639
B(  7-C , 26-H ) :   0.9612 B(  7-C , 27-H ) :   0.9847 B(  8-N ,  9-C ) :   1.1547
B(  8-N , 28-H ) :   0.9447 B(  9-C , 10-S ) :   1.6563 B(  9-C , 11-N ) :   1.2724
B( 11-N , 12-C ) :   0.9843 B( 11-N , 29-H ) :   0.9589 B( 12-C , 13-C ) :   0.9328
B( 12-C , 30-H ) :   0.9991 B( 13-C , 14-C ) :   1.3357 B( 13-C , 19-C ) :   1.3909
B( 14-C , 15-C ) :   1.4151 B( 14-C , 31-H ) :   0.9712 B( 15-C , 16-C ) :   1.3484
B( 15-C , 32-H ) :   0.9759 B( 16-C , 17-C ) :   1.3741 B( 16-C , 33-H ) :   0.9687
B( 17-C , 18-O ) :   1.1241 B( 17-C , 19-C ) :   1.3283 B( 18-O , 34-H ) :   0.9743
B( 19-C , 35-H ) :   0.9627

MP2 TOTAL ENERGY:    -1274.319445357 Eh
FINAL SINGLE POINT ENERGY     -1274.319445356622

DIPOLE MOMENT
-------------
                                X             Y             Z
Electronic contribution:     13.38052       3.73968       9.13285
Nuclear contribution   :    -14.62708      -3.75483      -9.96656
                        -----------------------------------------
Total Dipole Moment    :     -1.24656      -0.01516      -0.83371
                        -----------------------------------------
Magnitude (a.u.)       :      1.49974
Magnitude (Debye)      :      3.81203

Rotational constants in cm-1:     0.010993     0.008323     0.006034
Rotational constants in MHz :   329.563748   249.513270   180.885958

                             ****ORCA TERMINATED NORMALLY****
TOTAL RUN TIME: 0 days 2 hours 0 minutes 57 seconds 970 msec
