                         Program Version 5.0.0 -  RELEASE  -
|  1> ! RI-MP2 cc-pVTZ cc-pVTZ/c TightSCF KeepDens NoKeepInts
|  2>
|  3> %pointcharges "srfp_output"
|  4>
|  5> *xyz  0  1
|  6>     C    -2.5604436  -14.2603910    2.9020460
|  7>     C    -3.3490483  -15.0720623    1.8759676
|  8>     O    -3.2099499  -16.4861144    2.3393868
|  9>     C    -2.0341511  -17.1414764    1.9282720
| 10>     O    -1.2813246  -16.5899319    1.1865543
| 11>     C    -1.8670277  -18.4585828    2.4874984
| 12>     C    -2.4304629  -18.8658145    3.6097659
| 13>     C    -3.0778654  -18.0253283    4.6555775
| 14>     N    -2.2305389  -20.1095641    4.0401423
| 15>     C    -1.2847037  -20.9681592    3.5581526
| 16>     S    -1.0528848  -22.4795503    4.3468016
| 17>     N    -0.7068725  -20.5933799    2.4139966
| 18>     C    -0.9969604  -19.3765958    1.6501368
| 19>     C    -1.7084489  -19.7658398    0.2619435
| 20>     C    -0.9546948  -20.2637795   -0.8339486
| 21>     C    -1.5430059  -20.5931779   -2.0845648
| 22>     C    -2.9652964  -20.4647327   -2.1383619
| 23>     C    -3.7361188  -20.0347142   -1.0756903
| 24>     O    -5.1354571  -20.0244608   -1.1795787
| 25>     C    -3.0869865  -19.6830345    0.1168572
| 26>     H    -1.4854521  -14.4727991    2.8523809
| 27>     H    -2.9424563  -14.3238456    3.9283157
| 28>     H    -2.7189415  -13.1904024    2.7198320
| 29>     H    -4.4141589  -14.8106007    1.8951378
| 30>     H    -2.9758815  -14.8745267    0.8635863
| 31>     H    -4.1590415  -17.9212018    4.5025824
| 32>     H    -2.6431698  -17.0185075    4.6788382
| 33>     H    -2.9873047  -18.4425161    5.6659962
| 34>     H    -2.8185681  -20.3672735    4.8235817
| 35>     H    -0.0590570  -21.2883886    2.0629048
| 36>     H    -0.0618943  -18.9011053    1.3295908
| 37>     H     0.1162481  -20.2855892   -0.6550326
| 38>     H    -0.9676433  -20.8956834   -2.9545328
| 39>     H    -3.5736500  -20.8085407   -2.9696902
| 40>     H    -5.4047249  -20.6206966   -1.8998056
| 41>     H    -3.7361438  -19.3853528    0.9350185
| 42> *
| 43>
| 44>                          ****END OF INPUT****

CARTESIAN COORDINATES (ANGSTROEM)
---------------------------------
  C     -2.560444  -14.260391    2.902046
  C     -3.349048  -15.072062    1.875968
  O     -3.209950  -16.486114    2.339387
  C     -2.034151  -17.141476    1.928272
  O     -1.281325  -16.589932    1.186554
  C     -1.867028  -18.458583    2.487498
  C     -2.430463  -18.865814    3.609766
  C     -3.077865  -18.025328    4.655577
  N     -2.230539  -20.109564    4.040142
  C     -1.284704  -20.968159    3.558153
  S     -1.052885  -22.479550    4.346802
  N     -0.706873  -20.593380    2.413997
  C     -0.996960  -19.376596    1.650137
  C     -1.708449  -19.765840    0.261943
  C     -0.954695  -20.263779   -0.833949
  C     -1.543006  -20.593178   -2.084565
  C     -2.965296  -20.464733   -2.138362
  C     -3.736119  -20.034714   -1.075690
  O     -5.135457  -20.024461   -1.179579
  C     -3.086987  -19.683035    0.116857
  H     -1.485452  -14.472799    2.852381
  H     -2.942456  -14.323846    3.928316
  H     -2.718941  -13.190402    2.719832
  H     -4.414159  -14.810601    1.895138
  H     -2.975881  -14.874527    0.863586
  H     -4.159041  -17.921202    4.502582
  H     -2.643170  -17.018507    4.678838
  H     -2.987305  -18.442516    5.665996
  H     -2.818568  -20.367273    4.823582
  H     -0.059057  -21.288389    2.062905
  H     -0.061894  -18.901105    1.329591
  H      0.116248  -20.285589   -0.655033
  H     -0.967643  -20.895683   -2.954533
  H     -3.573650  -20.808541   -2.969690
  H     -5.404725  -20.620697   -1.899806
  H     -3.736144  -19.385353    0.935018

 Total Charge           Charge          ....    0
 Multiplicity           Mult            ....    1
 Number of Electrons    NEL             ....  154
 Basis Dimension        Dim             ....  828

ORBITAL ENERGIES
----------------

  NO   OCC          E(Eh)            E(eV)
   0   2.0000     -89.408060     -2432.9170
   1   2.0000     -18.066450      -491.6131
   2   2.0000     -18.059860      -491.4338
   3   2.0000     -18.041178      -490.9254
   4   2.0000     -13.107427      -356.6712
   5   2.0000     -13.103062      -356.5524
   6   2.0000      -8.889929      -241.9073
   7   2.0000      -8.875927      -241.5263
   8   2.0000      -8.797695      -239.3975
   9   2.0000      -8.797491      -239.3919
  10   2.0000      -8.782378      -238.9806
  11   2.0000      -8.759317      -238.3531
  12   2.0000      -8.739039      -237.8014
  13   2.0000      -8.735018      -237.6919
  14   2.0000      -8.721349      -237.3200
  15   2.0000      -8.720564      -237.2986
  16   2.0000      -8.715935      -237.1727
  17   2.0000      -8.714093      -237.1225
  18   2.0000      -8.706785      -236.9237
  19   2.0000      -8.682609      -236.2658
  20   2.0000      -6.412608      -174.4959
  21   2.0000      -4.094450      -111.4156
  22   2.0000      -4.092591      -111.3651
  23   2.0000      -4.092259      -111.3560
  24   2.0000       1.062716        28.9180
  25   2.0000       1.139069        30.9956
  26   2.0000       1.153192        31.3799
  27   2.0000       1.169459        31.8226
  28   2.0000       1.261042        34.3147
  29   2.0000       1.364572        37.1319
  30   2.0000       1.392546        37.8931
  31   2.0000       1.485665        40.4270
  32   2.0000       1.496721        40.7278
  33   2.0000       1.511873        41.1402
  34   2.0000       1.524193        41.4754
  35   2.0000       1.531459        41.6731
  36   2.0000       1.593505        43.3615
  37   2.0000       1.641310        44.6623
  38   2.0000       1.658933        45.1419
  39   2.0000       1.685228        45.8574
  40   2.0000       1.698765        46.2257
  41   2.0000       1.702242        46.3203
  42   2.0000       1.766181        48.0602
  43   2.0000       1.774749        48.2934
  44   2.0000       1.803810        49.0842
  45   2.0000       1.823906        49.6310
  46   2.0000       1.835552        49.9479
  47   2.0000       1.839972        50.0682
  48   2.0000       1.850278        50.3486
  49   2.0000       1.861399        50.6512
  50   2.0000       1.874645        51.0117
  51   2.0000       1.879361        51.1400
  52   2.0000       1.885306        51.3018
  53   2.0000       1.914534        52.0971
  54   2.0000       1.921294        52.2811
  55   2.0000       1.932273        52.5798
  56   2.0000       1.933291        52.6075
  57   2.0000       1.954126        53.1745
  58   2.0000       1.957394        53.2634
  59   2.0000       1.964392        53.4538
  60   2.0000       1.967427        53.5364
  61   2.0000       1.976929        53.7950
  62   2.0000       1.986886        54.0659
  63   2.0000       1.996194        54.3192
  64   2.0000       2.008472        54.6533
  65   2.0000       2.012618        54.7661
  66   2.0000       2.028901        55.2092
  67   2.0000       2.036228        55.4086
  68   2.0000       2.039355        55.4937
  69   2.0000       2.052679        55.8562
  70   2.0000       2.058341        56.0103
  71   2.0000       2.069928        56.3256
  72   2.0000       2.147661        58.4408
  73   2.0000       2.149927        58.5025
  74   2.0000       2.173901        59.1549
  75   2.0000       2.180450        59.3331
  76   2.0000       2.198141        59.8145
  77   0.0000       2.593997        70.5863
  78   0.0000       2.631757        71.6137
  79   0.0000       2.652035        72.1655
  80   0.0000       2.673087        72.7384
  81   0.0000       2.678739        72.8922

MULLIKEN ATOMIC CHARGES
-----------------------
   0 C :   -0.319790
   1 C :    0.040281
   2 O :   -0.388486
   3 C :    0.521114
   4 O :   -0.565773
   5 C :   -0.207592
   6 C :    0.184127
   7 C :   -0.298011
   8 N :   -0.112058
   9 C :    0.374243
  10 S :   -0.773196
  11 N :   -0.198157
  12 C :    0.102432
  13 C :   -0.048275
  14 C :   -0.203141
  15 C :   -0.180903
  16 C :   -0.258551
  17 C :    0.271004
  18 O :   -0.466297
  19 C :   -0.234570
  20 H :    0.105020
  21 H :    0.110506
  22 H :    0.116096
  23 H :    0.137562
  24 H :    0.118290
  25 H :    0.140430
  26 H :    0.133272
  27 H :    0.124698
  28 H :    0.257772
  29 H :    0.259027
  30 H :    0.176942
  31 H :    0.177882
  32 H :    0.214426
  33 H :    0.175272
  34 H :    0.329252
  35 H :    0.185152
Sum of atomic charges:   -0.0000000

LOEWDIN ATOMIC CHARGES
----------------------
   0 C :    0.095914
   1 C :    0.027598
   2 O :    0.248957
   3 C :   -0.415905
   4 O :    0.058811
   5 C :   -0.107426
   6 C :   -0.090867
   7 C :    0.140691
   8 N :    0.445922
   9 C :   -0.364122
  10 S :   -0.308141
  11 N :    0.441884
  12 C :   -0.005901
  13 C :   -0.040652
  14 C :    0.010613
  15 C :    0.051544
  16 C :    0.008078
  17 C :   -0.169083
  18 O :    0.316626
  19 C :    0.010034
  20 H :   -0.029916
  21 H :   -0.024193
  22 H :   -0.019180
  23 H :   -0.017139
  24 H :   -0.028398
  25 H :   -0.001065
  26 H :   -0.003154
  27 H :   -0.004098
  28 H :   -0.006702
  29 H :   -0.024598
  30 H :   -0.001753
  31 H :   -0.023876
  32 H :   -0.013217
  33 H :   -0.018825
  34 H :   -0.116707
  35 H :   -0.021756

  Mayer bond orders larger than 0.100000
B(  0-C ,  1-C ) :   0.9611 B(  0-C , 20-H ) :   0.9756 B(  0-C , 21-H ) :   0.9752
B(  0-C , 22-H ) :   0.9743 B(  1-C ,  2-O ) :   0.8632 B(  1-C , 23-H ) :   0.9798
B(  1-C , 24-H ) :   0.9750 B(  2-O ,  3-C ) :   1.1841 B(  3-C ,  4-O ) :   1.9274
B(  3-C ,  5-C ) :   1.0699 B(  5-C ,  6-C ) :   1.5865 B(  5-C , 12-C ) :   0.9932
B(  6-C ,  7-C ) :   0.9607 B(  6-C ,  8-N ) :   1.1681 B(  7-C , 25-H ) :   0.9561
B(  7-C , 26-H ) :   0.9667 B(  7-C , 27-H ) :   0.9821 B(  8-N ,  9-C ) :   1.2663
B(  8-N , 28-H ) :   0.9244 B(  9-C , 10-S ) :   1.1294 B(  9-C , 11-N ) :   1.4953
B( 11-N , 12-C ) :   0.9367 B( 11-N , 29-H ) :   0.9183 B( 12-C , 13-C ) :   0.9518
B( 12-C , 30-H ) :   0.9843 B( 13-C , 14-C ) :   1.3555 B( 13-C , 19-C ) :   1.3827
B( 14-C , 15-C ) :   1.4105 B( 14-C , 31-H ) :   0.9608 B( 15-C , 16-C ) :   1.3154
B( 15-C , 32-H ) :   0.9479 B( 16-C , 17-C ) :   1.3871 B( 16-C , 33-H ) :   0.9685
B( 17-C , 18-O ) :   1.0887 B( 17-C , 19-C ) :   1.3446 B( 18-O , 34-H ) :   0.9140
B( 19-C , 35-H ) :   0.9478

MP2 TOTAL ENERGY:    -1274.454071174 Eh
FINAL SINGLE POINT ENERGY     -1274.454071174013

DIPOLE MOMENT
-------------
                                X             Y             Z
Electronic contribution:      3.51683     -15.17867      -1.31361
Nuclear contribution   :     -5.02491      17.27970       0.36773
                        -----------------------------------------
Total Dipole Moment    :     -1.50808       2.10104      -0.94588
                        -----------------------------------------
Magnitude (a.u.)       :      2.75379
Magnitude (Debye)      :      6.99957

Rotational constants in cm-1:     0.009877     0.009327     0.005795
Rotational constants in MHz :   296.110803   279.607861   173.739092

                             ****ORCA TERMINATED NORMALLY****
TOTAL RUN TIME: 0 days 1 hours 57 minutes 47 seconds 715 msec
