                         Program Version 5.0.0 -  RELEASE  -
|  1> ! RI-MP2 cc-pVTZ cc-pVTZ/c TightSCF KeepDens NoKeepInts
|  2>
|  3> *xyz  0  1
|  4>     C    -2.5604436  -14.2603910    2.9020460
|  5>     C    -3.3490483  -15.0720623    1.8759676
|  6>     O    -3.2099499  -16.4861144    2.3393868
|  7>     C    -2.0341511  -17.1414764    1.9282720
|  8>     O    -1.2813246  -16.5899319    1.1865543
|  9>     C    -1.8670277  -18.4585828    2.4874984
| 10>     C    -2.4304629  -18.8658145    3.6097659
| 11>     C    -3.0778654  -18.0253283    4.6555775
| 12>     N    -2.2305389  -20.1095641    4.0401423
| 13>     C    -1.2847037  -20.9681592    3.5581526
| 14>     S    -1.0528848  -22.4795503    4.3468016
| 15>     N    -0.7068725  -20.5933799    2.4139966
| 16>     C    -0.9969604  -19.3765958    1.6501368
| 17>     C    -1.7084489  -19.7658398    0.2619435
| 18>     C    -0.9546948  -20.2637795   -0.8339486
| 19>     C    -1.5430059  -20.5931779   -2.0845648
| 20>     C    -2.9652964  -20.4647327   -2.1383619
| 21>     C    -3.7361188  -20.0347142   -1.0756903
| 22>     O    -5.1354571  -20.0244608   -1.1795787
| 23>     C    -3.0869865  -19.6830345    0.1168572
| 24>     H    -1.4854521  -14.4727991    2.8523809
| 25>     H    -2.9424563  -14.3238456    3.9283157
| 26>     H    -2.7189415  -13.1904024    2.7198320
| 27>     H    -4.4141589  -14.8106007    1.8951378
| 28>     H    -2.9758815  -14.8745267    0.8635863
| 29>     H    -4.1590415  -17.9212018    4.5025824
| 30>     H    -2.6431698  -17.0185075    4.6788382
| 31>     H    -2.9873047  -18.4425161    5.6659962
| 32>     H    -2.8185681  -20.3672735    4.8235817
| 33>     H    -0.0590570  -21.2883886    2.0629048
| 34>     H    -0.0618943  -18.9011053    1.3295908
| 35>     H     0.1162481  -20.2855892   -0.6550326
| 36>     H    -0.9676433  -20.8956834   -2.9545328
| 37>     H    -3.5736500  -20.8085407   -2.9696902
| 38>     H    -5.4047249  -20.6206966   -1.8998056
| 39>     H    -3.7361438  -19.3853528    0.9350185
| 40> *
| 41>
| 42>                          ****END OF INPUT****

CARTESIAN COORDINATES (ANGSTROEM)
---------------------------------
  C     -2.560444  -14.260391    2.902046
  C     -3.349048  -15.072062    1.875968
  O     -3.209950  -16.486114    2.339387
  C     -2.034151  -17.141476    1.928272
  O     -1.281325  -16.589932    1.186554
  C     -1.867028  -18.458583    2.487498
  C     -2.430463  -18.865814    3.609766
  C     -3.077865  -18.025328    4.655577
  N     -2.230539  -20.109564    4.040142
  C     -1.284704  -20.968159    3.558153
  S     -1.052885  -22.479550    4.346802
  N     -0.706873  -20.593380    2.413997
  C     -0.996960  -19.376596    1.650137
  C     -1.708449  -19.765840    0.261943
  C     -0.954695  -20.263779   -0.833949
  C     -1.543006  -20.593178   -2.084565
  C     -2.965296  -20.464733   -2.138362
  C     -3.736119  -20.034714   -1.075690
  O     -5.135457  -20.024461   -1.179579
  C     -3.086987  -19.683035    0.116857
  H     -1.485452  -14.472799    2.852381
  H     -2.942456  -14.323846    3.928316
  H     -2.718941  -13.190402    2.719832
  H     -4.414159  -14.810601    1.895138
  H     -2.975881  -14.874527    0.863586
  H     -4.159041  -17.921202    4.502582
  H     -2.643170  -17.018507    4.678838
  H     -2.987305  -18.442516    5.665996
  H     -2.818568  -20.367273    4.823582
  H     -0.059057  -21.288389    2.062905
  H     -0.061894  -18.901105    1.329591
  H      0.116248  -20.285589   -0.655033
  H     -0.967643  -20.895683   -2.954533
  H     -3.573650  -20.808541   -2.969690
  H     -5.404725  -20.620697   -1.899806
  H     -3.736144  -19.385353    0.935018

 Total Charge           Charge          ....    0
 Multiplicity           Mult            ....    1
 Number of Electrons    NEL             ....  154
 Basis Dimension        Dim             ....  828

ORBITAL ENERGIES
----------------

  NO   OCC          E(Eh)            E(eV)
   0   2.0000     -91.889838     -2500.4496
   1   2.0000     -20.592238      -560.3433
   2   2.0000     -20.590524      -560.2967
   3   2.0000     -20.545223      -559.0639
   4   2.0000     -15.626882      -425.2291
   5   2.0000     -15.621610      -425.0856
   6   2.0000     -11.389872      -309.9342
   7   2.0000     -11.383458      -309.7596
   8   2.0000     -11.324480      -308.1548
   9   2.0000     -11.321791      -308.0816
  10   2.0000     -11.309088      -307.7359
  11   2.0000     -11.297092      -307.4095
  12   2.0000     -11.263976      -306.5084
  13   2.0000     -11.263451      -306.4941
  14   2.0000     -11.255609      -306.2807
  15   2.0000     -11.247847      -306.0695
  16   2.0000     -11.247657      -306.0643
  17   2.0000     -11.243557      -305.9527
  18   2.0000     -11.239784      -305.8501
  19   2.0000     -11.225662      -305.4658
  20   2.0000      -8.892650      -241.9813
  21   2.0000      -6.574030      -178.8884
  22   2.0000      -6.572116      -178.8364
  23   2.0000      -6.571618      -178.8228
  24   2.0000      -1.446582       -39.3635
  25   2.0000      -1.391930       -37.8763
  26   2.0000      -1.366824       -37.1932
  27   2.0000      -1.347880       -36.6777
  28   2.0000      -1.260633       -34.3036
  29   2.0000      -1.158235       -31.5172
  30   2.0000      -1.130834       -30.7716
  31   2.0000      -1.042330       -28.3632
  32   2.0000      -1.033740       -28.1295
  33   2.0000      -1.014161       -27.5967
  34   2.0000      -1.008992       -27.4561
  35   2.0000      -0.980839       -26.6900
  36   2.0000      -0.927955       -25.2509
  37   2.0000      -0.882894       -24.0248
  38   2.0000      -0.860015       -23.4022
  39   2.0000      -0.842654       -22.9298
  40   2.0000      -0.830153       -22.5896
  41   2.0000      -0.825162       -22.4538
  42   2.0000      -0.752324       -20.4718
  43   2.0000      -0.743974       -20.2446
  44   2.0000      -0.723190       -19.6790
  45   2.0000      -0.698434       -19.0054
  46   2.0000      -0.689613       -18.7653
  47   2.0000      -0.678465       -18.4620
  48   2.0000      -0.670956       -18.2577
  49   2.0000      -0.665556       -18.1107
  50   2.0000      -0.651745       -17.7349
  51   2.0000      -0.645757       -17.5719
  52   2.0000      -0.637552       -17.3487
  53   2.0000      -0.616191       -16.7674
  54   2.0000      -0.609334       -16.5808
  55   2.0000      -0.601936       -16.3795
  56   2.0000      -0.593369       -16.1464
  57   2.0000      -0.583109       -15.8672
  58   2.0000      -0.568087       -15.4584
  59   2.0000      -0.562568       -15.3082
  60   2.0000      -0.559728       -15.2310
  61   2.0000      -0.544729       -14.8228
  62   2.0000      -0.541860       -14.7448
  63   2.0000      -0.527414       -14.3517
  64   2.0000      -0.519803       -14.1446
  65   2.0000      -0.504782       -13.7358
  66   2.0000      -0.499388       -13.5890
  67   2.0000      -0.496594       -13.5130
  68   2.0000      -0.485326       -13.2064
  69   2.0000      -0.467724       -12.7274
  70   2.0000      -0.455845       -12.4042
  71   2.0000      -0.453982       -12.3535
  72   2.0000      -0.356821        -9.7096
  73   2.0000      -0.347487        -9.4556
  74   2.0000      -0.327430        -8.9098
  75   2.0000      -0.323227        -8.7955
  76   2.0000      -0.315070        -8.5735
  77   0.0000       0.080300         2.1851
  78   0.0000       0.106135         2.8881
  79   0.0000       0.121038         3.2936
  80   0.0000       0.124180         3.3791
  81   0.0000       0.136013         3.7011

MULLIKEN ATOMIC CHARGES
-----------------------
   0 C :   -0.314961
   1 C :    0.039420
   2 O :   -0.403980
   3 C :    0.473436
   4 O :   -0.421340
   5 C :   -0.213305
   6 C :    0.162931
   7 C :   -0.307507
   8 N :   -0.091177
   9 C :    0.207560
  10 S :   -0.469815
  11 N :   -0.180464
  12 C :    0.067614
  13 C :    0.060232
  14 C :   -0.192189
  15 C :   -0.166286
  16 C :   -0.225486
  17 C :    0.259858
  18 O :   -0.377905
  19 C :   -0.226241
  20 H :    0.118083
  21 H :    0.093624
  22 H :    0.100925
  23 H :    0.114636
  24 H :    0.123329
  25 H :    0.129716
  26 H :    0.128206
  27 H :    0.107222
  28 H :    0.192379
  29 H :    0.196647
  30 H :    0.158598
  31 H :    0.144846
  32 H :    0.176180
  33 H :    0.127749
  34 H :    0.242258
  35 H :    0.165205
Sum of atomic charges:   -0.0000000

LOEWDIN ATOMIC CHARGES
----------------------
   0 C :    0.093104
   1 C :    0.022744
   2 O :    0.235533
   3 C :   -0.436812
   4 O :    0.149620
   5 C :   -0.109293
   6 C :   -0.114156
   7 C :    0.128371
   8 N :    0.426901
   9 C :   -0.405905
  10 S :   -0.116725
  11 N :    0.415465
  12 C :   -0.013126
  13 C :   -0.018916
  14 C :    0.015218
  15 C :    0.056347
  16 C :    0.003296
  17 C :   -0.157584
  18 O :    0.349665
  19 C :    0.022743
  20 H :   -0.024487
  21 H :   -0.030901
  22 H :   -0.025782
  23 H :   -0.026662
  24 H :   -0.025521
  25 H :   -0.008592
  26 H :   -0.006031
  27 H :   -0.015247
  28 H :   -0.038980
  29 H :   -0.055489
  30 H :   -0.008451
  31 H :   -0.035777
  32 H :   -0.023752
  33 H :   -0.036749
  34 H :   -0.159038
  35 H :   -0.025030

  Mayer bond orders larger than 0.100000
B(  0-C ,  1-C ) :   0.9644 B(  0-C , 20-H ) :   0.9736 B(  0-C , 21-H ) :   0.9774
B(  0-C , 22-H ) :   0.9773 B(  1-C ,  2-O ) :   0.8834 B(  1-C , 23-H ) :   0.9840
B(  1-C , 24-H ) :   0.9741 B(  2-O ,  3-C ) :   1.1306 B(  3-C ,  4-O ) :   2.0054
B(  3-C ,  5-C ) :   1.0364 B(  5-C ,  6-C ) :   1.6063 B(  5-C , 12-C ) :   1.0039
B(  6-C ,  7-C ) :   0.9544 B(  6-C ,  8-N ) :   1.1715 B(  7-C , 25-H ) :   0.9620
B(  7-C , 26-H ) :   0.9694 B(  7-C , 27-H ) :   0.9888 B(  8-N ,  9-C ) :   1.1822
B(  8-N , 28-H ) :   0.9553 B(  9-C , 10-S ) :   1.5000 B(  9-C , 11-N ) :   1.3799
B( 11-N , 12-C ) :   0.9512 B( 11-N , 29-H ) :   0.9471 B( 12-C , 13-C ) :   0.9604
B( 12-C , 30-H ) :   0.9856 B( 13-C , 14-C ) :   1.3419 B( 13-C , 19-C ) :   1.3906
B( 14-C , 15-C ) :   1.4427 B( 14-C , 31-H ) :   0.9715 B( 15-C , 16-C ) :   1.3255
B( 15-C , 32-H ) :   0.9613 B( 16-C , 17-C ) :   1.3939 B( 16-C , 33-H ) :   0.9824
B( 17-C , 18-O ) :   1.0818 B( 17-C , 19-C ) :   1.3437 B( 18-O , 34-H ) :   0.9771
B( 19-C , 35-H ) :   0.9572

MP2 TOTAL ENERGY:    -1274.313555441 Eh
FINAL SINGLE POINT ENERGY     -1274.313555441470

DIPOLE MOMENT
-------------
                                X             Y             Z
Electronic contribution:      4.17454     -15.98262      -0.99032
Nuclear contribution   :     -5.02491      17.27970       0.36773
                        -----------------------------------------
Total Dipole Moment    :     -0.85037       1.29708      -0.62259
                        -----------------------------------------
Magnitude (a.u.)       :      1.67128
Magnitude (Debye)      :      4.24805

Rotational constants in cm-1:     0.009877     0.009327     0.005795
Rotational constants in MHz :   296.110803   279.607861   173.739092

                             ****ORCA TERMINATED NORMALLY****
TOTAL RUN TIME: 0 days 1 hours 59 minutes 10 seconds 126 msec
