                         Program Version 5.0.0 -  RELEASE  -
|  1> ! RI-MP2 cc-pVTZ cc-pVTZ/c TightSCF KeepDens NoKeepInts
|  2>
|  3> %pointcharges "srfp_output"
|  4>
|  5> *xyz  0  1
|  6>     C     5.0584983   11.0229878   -1.5949781
|  7>     C     4.4421379   10.4957070   -2.9141396
|  8>     O     5.4456154    9.8380737   -3.7594919
|  9>     C     5.8476682    8.5579150   -3.4694392
| 10>     O     5.2909370    7.8299668   -2.6167955
| 11>     C     6.8328820    8.0109278   -4.4468379
| 12>     C     7.3482008    8.6109807   -5.5221017
| 13>     C     7.1685778   10.0189342   -5.9335645
| 14>     N     8.0588030    7.8543115   -6.5022839
| 15>     C     8.1990851    6.5270858   -6.4212849
| 16>     S     8.8244354    5.7119505   -7.6519403
| 17>     N     7.6867342    5.9082076   -5.3245066
| 18>     C     7.0946811    6.5253820   -4.1791567
| 19>     C     8.0030937    6.3021195   -3.0215661
| 20>     C     8.0040414    5.0305810   -2.3866714
| 21>     C     8.8763101    4.7229015   -1.3740326
| 22>     C     9.8949650    5.6233615   -1.0619930
| 23>     C     9.9373676    6.8773393   -1.6636839
| 24>     O    11.0740619    7.5378355   -1.4275785
| 25>     C     9.0514615    7.1812981   -2.6806884
| 26>     H     6.1361027   11.1450735   -1.7594623
| 27>     H     4.8113683   10.4585153   -0.6875162
| 28>     H     4.6420782   12.0207006   -1.4096168
| 29>     H     3.6598451    9.7757271   -2.6442524
| 30>     H     3.9370329   11.2958282   -3.4689950
| 31>     H     7.1638542   10.6888470   -5.0650166
| 32>     H     6.4364434    9.9842937   -6.7496338
| 33>     H     8.1111370   10.3277613   -6.4019634
| 34>     H     8.3787507    8.2726746   -7.3674848
| 35>     H     7.7846750    4.9101189   -5.1823944
| 36>     H     6.1509772    6.0234116   -3.9329022
| 37>     H     7.2430910    4.2891108   -2.6115756
| 38>     H     8.8051909    3.7588808   -0.8790468
| 39>     H    10.5763682    5.2755164   -0.2912210
| 40>     H    11.2213750    8.2017263   -2.1234786
| 41>     H     9.1331012    8.1258532   -3.2103558
| 42> *
| 43>
| 44>                          ****END OF INPUT****

CARTESIAN COORDINATES (ANGSTROEM)
---------------------------------
  C      5.058498   11.022988   -1.594978
  C      4.442138   10.495707   -2.914140
  O      5.445615    9.838074   -3.759492
  C      5.847668    8.557915   -3.469439
  O      5.290937    7.829967   -2.616795
  C      6.832882    8.010928   -4.446838
  C      7.348201    8.610981   -5.522102
  C      7.168578   10.018934   -5.933565
  N      8.058803    7.854311   -6.502284
  C      8.199085    6.527086   -6.421285
  S      8.824435    5.711951   -7.651940
  N      7.686734    5.908208   -5.324507
  C      7.094681    6.525382   -4.179157
  C      8.003094    6.302119   -3.021566
  C      8.004041    5.030581   -2.386671
  C      8.876310    4.722901   -1.374033
  C      9.894965    5.623361   -1.061993
  C      9.937368    6.877339   -1.663684
  O     11.074062    7.537835   -1.427579
  C      9.051461    7.181298   -2.680688
  H      6.136103   11.145074   -1.759462
  H      4.811368   10.458515   -0.687516
  H      4.642078   12.020701   -1.409617
  H      3.659845    9.775727   -2.644252
  H      3.937033   11.295828   -3.468995
  H      7.163854   10.688847   -5.065017
  H      6.436443    9.984294   -6.749634
  H      8.111137   10.327761   -6.401963
  H      8.378751    8.272675   -7.367485
  H      7.784675    4.910119   -5.182394
  H      6.150977    6.023412   -3.932902
  H      7.243091    4.289111   -2.611576
  H      8.805191    3.758881   -0.879047
  H     10.576368    5.275516   -0.291221
  H     11.221375    8.201726   -2.123479
  H      9.133101    8.125853   -3.210356

 Total Charge           Charge          ....    0
 Multiplicity           Mult            ....    1
 Number of Electrons    NEL             ....  154
 Basis Dimension        Dim             ....  828

ORBITAL ENERGIES
----------------

  NO   OCC          E(Eh)            E(eV)
   0   2.0000     -94.442382     -2569.9079
   1   2.0000     -23.138663      -629.6350
   2   2.0000     -23.115254      -628.9980
   3   2.0000     -23.096183      -628.4791
   4   2.0000     -18.156088      -494.0523
   5   2.0000     -18.136953      -493.5316
   6   2.0000     -13.949574      -379.5872
   7   2.0000     -13.923215      -378.8699
   8   2.0000     -13.860721      -377.1694
   9   2.0000     -13.832059      -376.3895
  10   2.0000     -13.822052      -376.1171
  11   2.0000     -13.818687      -376.0256
  12   2.0000     -13.785725      -375.1287
  13   2.0000     -13.781758      -375.0207
  14   2.0000     -13.763579      -374.5260
  15   2.0000     -13.763513      -374.5242
  16   2.0000     -13.763255      -374.5172
  17   2.0000     -13.754296      -374.2734
  18   2.0000     -13.753430      -374.2499
  19   2.0000     -13.743025      -373.9667
  20   2.0000     -11.451740      -311.6177
  21   2.0000      -9.134041      -248.5499
  22   2.0000      -9.131653      -248.4849
  23   2.0000      -9.131227      -248.4733
  24   2.0000      -3.978384      -108.2573
  25   2.0000      -3.945083      -107.3512
  26   2.0000      -3.889671      -105.8433
  27   2.0000      -3.883006      -105.6620
  28   2.0000      -3.776272      -102.7576
  29   2.0000      -3.689605      -100.3993
  30   2.0000      -3.662406       -99.6591
  31   2.0000      -3.574804       -97.2754
  32   2.0000      -3.562750       -96.9474
  33   2.0000      -3.543300       -96.4181
  34   2.0000      -3.534724       -96.1847
  35   2.0000      -3.526125       -95.9507
  36   2.0000      -3.458843       -94.1199
  37   2.0000      -3.419435       -93.0476
  38   2.0000      -3.379562       -91.9626
  39   2.0000      -3.369770       -91.6961
  40   2.0000      -3.355665       -91.3123
  41   2.0000      -3.337249       -90.8112
  42   2.0000      -3.287503       -89.4575
  43   2.0000      -3.277859       -89.1951
  44   2.0000      -3.265449       -88.8574
  45   2.0000      -3.228774       -87.8594
  46   2.0000      -3.221255       -87.6548
  47   2.0000      -3.205890       -87.2367
  48   2.0000      -3.192875       -86.8825
  49   2.0000      -3.189089       -86.7795
  50   2.0000      -3.179816       -86.5272
  51   2.0000      -3.169820       -86.2552
  52   2.0000      -3.157836       -85.9291
  53   2.0000      -3.148558       -85.6766
  54   2.0000      -3.135849       -85.3308
  55   2.0000      -3.131850       -85.2220
  56   2.0000      -3.128395       -85.1280
  57   2.0000      -3.112442       -84.6939
  58   2.0000      -3.097607       -84.2902
  59   2.0000      -3.093810       -84.1869
  60   2.0000      -3.082671       -83.8838
  61   2.0000      -3.075017       -83.6755
  62   2.0000      -3.056748       -83.1783
  63   2.0000      -3.052096       -83.0517
  64   2.0000      -3.039975       -82.7219
  65   2.0000      -3.034742       -82.5795
  66   2.0000      -3.025868       -82.3380
  67   2.0000      -3.020720       -82.1980
  68   2.0000      -3.008623       -81.8688
  69   2.0000      -3.000025       -81.6348
  70   2.0000      -2.990422       -81.3735
  71   2.0000      -2.985792       -81.2475
  72   2.0000      -2.901385       -78.9507
  73   2.0000      -2.894450       -78.7620
  74   2.0000      -2.880714       -78.3882
  75   2.0000      -2.868030       -78.0431
  76   2.0000      -2.844805       -77.4111
  77   0.0000      -2.458255       -66.8925
  78   0.0000      -2.415157       -65.7198
  79   0.0000      -2.392033       -65.0905
  80   0.0000      -2.383526       -64.8590
  81   0.0000      -2.381467       -64.8030

MULLIKEN ATOMIC CHARGES
-----------------------
   0 C :   -0.304144
   1 C :    0.029150
   2 O :   -0.339101
   3 C :    0.554550
   4 O :   -0.611073
   5 C :   -0.263398
   6 C :    0.220624
   7 C :   -0.296670
   8 N :   -0.140094
   9 C :    0.333193
  10 S :   -0.714161
  11 N :   -0.205577
  12 C :    0.078591
  13 C :    0.051768
  14 C :   -0.259010
  15 C :   -0.093039
  16 C :   -0.323880
  17 C :    0.318172
  18 O :   -0.440069
  19 C :   -0.322182
  20 H :    0.105674
  21 H :    0.114247
  22 H :    0.110610
  23 H :    0.114096
  24 H :    0.135062
  25 H :    0.142575
  26 H :    0.146727
  27 H :    0.119259
  28 H :    0.261696
  29 H :    0.251965
  30 H :    0.164509
  31 H :    0.172707
  32 H :    0.197068
  33 H :    0.179000
  34 H :    0.327509
  35 H :    0.183646
Sum of atomic charges:    0.0000000

LOEWDIN ATOMIC CHARGES
----------------------
   0 C :    0.110234
   1 C :    0.011559
   2 O :    0.300485
   3 C :   -0.342940
   4 O :   -0.040232
   5 C :   -0.083343
   6 C :   -0.043543
   7 C :    0.136615
   8 N :    0.433025
   9 C :   -0.496270
  10 S :   -0.160109
  11 N :    0.434132
  12 C :   -0.078918
  13 C :   -0.041480
  14 C :    0.012178
  15 C :    0.028500
  16 C :    0.001023
  17 C :   -0.232290
  18 O :    0.377056
  19 C :    0.018122
  20 H :   -0.025561
  21 H :   -0.023951
  22 H :   -0.019691
  23 H :   -0.028938
  24 H :   -0.017572
  25 H :   -0.007361
  26 H :   -0.000444
  27 H :   -0.003076
  28 H :   -0.020573
  29 H :   -0.025300
  30 H :    0.001036
  31 H :   -0.017335
  32 H :   -0.006587
  33 H :   -0.020251
  34 H :   -0.105612
  35 H :   -0.022589

  Mayer bond orders larger than 0.100000
B(  0-C ,  1-C ) :   0.9432 B(  0-C , 20-H ) :   0.9742 B(  0-C , 21-H ) :   0.9784
B(  0-C , 22-H ) :   0.9796 B(  1-C ,  2-O ) :   0.8648 B(  1-C , 23-H ) :   0.9798
B(  1-C , 24-H ) :   0.9841 B(  2-O ,  3-C ) :   1.2230 B(  3-C ,  4-O ) :   1.8424
B(  3-C ,  5-C ) :   1.1005 B(  5-C ,  6-C ) :   1.6147 B(  5-C , 12-C ) :   0.9879
B(  6-C ,  7-C ) :   0.9561 B(  6-C ,  8-N ) :   1.1451 B(  7-C , 25-H ) :   0.9706
B(  7-C , 26-H ) :   0.9600 B(  7-C , 27-H ) :   0.9678 B(  8-N ,  9-C ) :   1.2932
B(  8-N , 28-H ) :   0.9169 B(  9-C , 10-S ) :   1.3315 B(  9-C , 11-N ) :   1.4027
B( 11-N , 12-C ) :   0.9573 B( 11-N , 29-H ) :   0.9234 B( 12-C , 13-C ) :   0.9349
B( 12-C , 30-H ) :   1.0064 B( 13-C , 14-C ) :   1.3634 B( 13-C , 19-C ) :   1.2950
B( 14-C , 15-C ) :   1.3877 B( 14-C , 31-H ) :   0.9649 B( 15-C , 16-C ) :   1.3398
B( 15-C , 32-H ) :   0.9607 B( 16-C , 17-C ) :   1.3156 B( 16-C , 33-H ) :   0.9646
B( 17-C , 18-O ) :   1.1329 B( 17-C , 19-C ) :   1.3889 B( 18-O , 34-H ) :   0.9080
B( 19-C , 35-H ) :   0.9546

MP2 TOTAL ENERGY:    -1274.439457153 Eh
FINAL SINGLE POINT ENERGY     -1274.439457152778

DIPOLE MOMENT
-------------
                                X             Y             Z
Electronic contribution:      6.88340     -10.87544      -8.36655
Nuclear contribution   :     -7.81549      14.28447       8.76283
                        -----------------------------------------
Total Dipole Moment    :     -0.93209       3.40903       0.39627
                        -----------------------------------------
Magnitude (a.u.)       :      3.55630
Magnitude (Debye)      :      9.03940

Rotational constants in cm-1:     0.010429     0.008905     0.005864
Rotational constants in MHz :   312.653010   266.963892   175.804884

                             ****ORCA TERMINATED NORMALLY****
TOTAL RUN TIME: 0 days 2 hours 5 minutes 45 seconds 470 msec
