                         Program Version 5.0.0 -  RELEASE  -
|  1> ! RI-MP2 cc-pVTZ cc-pVTZ/c TightSCF KeepDens NoKeepInts
|  2>
|  3> *xyz  0  1
|  4>     C     5.0584983   11.0229878   -1.5949781
|  5>     C     4.4421379   10.4957070   -2.9141396
|  6>     O     5.4456154    9.8380737   -3.7594919
|  7>     C     5.8476682    8.5579150   -3.4694392
|  8>     O     5.2909370    7.8299668   -2.6167955
|  9>     C     6.8328820    8.0109278   -4.4468379
| 10>     C     7.3482008    8.6109807   -5.5221017
| 11>     C     7.1685778   10.0189342   -5.9335645
| 12>     N     8.0588030    7.8543115   -6.5022839
| 13>     C     8.1990851    6.5270858   -6.4212849
| 14>     S     8.8244354    5.7119505   -7.6519403
| 15>     N     7.6867342    5.9082076   -5.3245066
| 16>     C     7.0946811    6.5253820   -4.1791567
| 17>     C     8.0030937    6.3021195   -3.0215661
| 18>     C     8.0040414    5.0305810   -2.3866714
| 19>     C     8.8763101    4.7229015   -1.3740326
| 20>     C     9.8949650    5.6233615   -1.0619930
| 21>     C     9.9373676    6.8773393   -1.6636839
| 22>     O    11.0740619    7.5378355   -1.4275785
| 23>     C     9.0514615    7.1812981   -2.6806884
| 24>     H     6.1361027   11.1450735   -1.7594623
| 25>     H     4.8113683   10.4585153   -0.6875162
| 26>     H     4.6420782   12.0207006   -1.4096168
| 27>     H     3.6598451    9.7757271   -2.6442524
| 28>     H     3.9370329   11.2958282   -3.4689950
| 29>     H     7.1638542   10.6888470   -5.0650166
| 30>     H     6.4364434    9.9842937   -6.7496338
| 31>     H     8.1111370   10.3277613   -6.4019634
| 32>     H     8.3787507    8.2726746   -7.3674848
| 33>     H     7.7846750    4.9101189   -5.1823944
| 34>     H     6.1509772    6.0234116   -3.9329022
| 35>     H     7.2430910    4.2891108   -2.6115756
| 36>     H     8.8051909    3.7588808   -0.8790468
| 37>     H    10.5763682    5.2755164   -0.2912210
| 38>     H    11.2213750    8.2017263   -2.1234786
| 39>     H     9.1331012    8.1258532   -3.2103558
| 40> *
| 41>
| 42>                          ****END OF INPUT****

CARTESIAN COORDINATES (ANGSTROEM)
---------------------------------
  C      5.058498   11.022988   -1.594978
  C      4.442138   10.495707   -2.914140
  O      5.445615    9.838074   -3.759492
  C      5.847668    8.557915   -3.469439
  O      5.290937    7.829967   -2.616795
  C      6.832882    8.010928   -4.446838
  C      7.348201    8.610981   -5.522102
  C      7.168578   10.018934   -5.933565
  N      8.058803    7.854311   -6.502284
  C      8.199085    6.527086   -6.421285
  S      8.824435    5.711951   -7.651940
  N      7.686734    5.908208   -5.324507
  C      7.094681    6.525382   -4.179157
  C      8.003094    6.302119   -3.021566
  C      8.004041    5.030581   -2.386671
  C      8.876310    4.722901   -1.374033
  C      9.894965    5.623361   -1.061993
  C      9.937368    6.877339   -1.663684
  O     11.074062    7.537835   -1.427579
  C      9.051461    7.181298   -2.680688
  H      6.136103   11.145074   -1.759462
  H      4.811368   10.458515   -0.687516
  H      4.642078   12.020701   -1.409617
  H      3.659845    9.775727   -2.644252
  H      3.937033   11.295828   -3.468995
  H      7.163854   10.688847   -5.065017
  H      6.436443    9.984294   -6.749634
  H      8.111137   10.327761   -6.401963
  H      8.378751    8.272675   -7.367485
  H      7.784675    4.910119   -5.182394
  H      6.150977    6.023412   -3.932902
  H      7.243091    4.289111   -2.611576
  H      8.805191    3.758881   -0.879047
  H     10.576368    5.275516   -0.291221
  H     11.221375    8.201726   -2.123479
  H      9.133101    8.125853   -3.210356

 Total Charge           Charge          ....    0
 Multiplicity           Mult            ....    1
 Number of Electrons    NEL             ....  154
 Basis Dimension        Dim             ....  828

ORBITAL ENERGIES
----------------

  NO   OCC          E(Eh)            E(eV)
   0   2.0000     -91.880887     -2500.2060
   1   2.0000     -20.611369      -560.8639
   2   2.0000     -20.590956      -560.3084
   3   2.0000     -20.549883      -559.1908
   4   2.0000     -15.627395      -425.2430
   5   2.0000     -15.600235      -424.5040
   6   2.0000     -11.404848      -310.3417
   7   2.0000     -11.373139      -309.4789
   8   2.0000     -11.334803      -308.4357
   9   2.0000     -11.305516      -307.6387
  10   2.0000     -11.302933      -307.5684
  11   2.0000     -11.292847      -307.2940
  12   2.0000     -11.260551      -306.4152
  13   2.0000     -11.259345      -306.3824
  14   2.0000     -11.253556      -306.2248
  15   2.0000     -11.236414      -305.7584
  16   2.0000     -11.235822      -305.7423
  17   2.0000     -11.234359      -305.7024
  18   2.0000     -11.225997      -305.4749
  19   2.0000     -11.224173      -305.4253
  20   2.0000      -8.888547      -241.8697
  21   2.0000      -6.570405      -178.7898
  22   2.0000      -6.568076      -178.7264
  23   2.0000      -6.567480      -178.7102
  24   2.0000      -1.444599       -39.3095
  25   2.0000      -1.418790       -38.6072
  26   2.0000      -1.350800       -36.7571
  27   2.0000      -1.345651       -36.6170
  28   2.0000      -1.246195       -33.9107
  29   2.0000      -1.158704       -31.5299
  30   2.0000      -1.132901       -30.8278
  31   2.0000      -1.048155       -28.5217
  32   2.0000      -1.041881       -28.3510
  33   2.0000      -1.014939       -27.6179
  34   2.0000      -1.006704       -27.3938
  35   2.0000      -0.994049       -27.0494
  36   2.0000      -0.928214       -25.2580
  37   2.0000      -0.898107       -24.4387
  38   2.0000      -0.850818       -23.1519
  39   2.0000      -0.841477       -22.8978
  40   2.0000      -0.830390       -22.5961
  41   2.0000      -0.809762       -22.0347
  42   2.0000      -0.756163       -20.5762
  43   2.0000      -0.748475       -20.3671
  44   2.0000      -0.738896       -20.1064
  45   2.0000      -0.701610       -19.0918
  46   2.0000      -0.681764       -18.5517
  47   2.0000      -0.679096       -18.4791
  48   2.0000      -0.666086       -18.1251
  49   2.0000      -0.661788       -18.0082
  50   2.0000      -0.650790       -17.7089
  51   2.0000      -0.644190       -17.5293
  52   2.0000      -0.631970       -17.1968
  53   2.0000      -0.631234       -17.1768
  54   2.0000      -0.612622       -16.6703
  55   2.0000      -0.604310       -16.4441
  56   2.0000      -0.602391       -16.3919
  57   2.0000      -0.588055       -16.0018
  58   2.0000      -0.572047       -15.5662
  59   2.0000      -0.565884       -15.3985
  60   2.0000      -0.558240       -15.1905
  61   2.0000      -0.535430       -14.5698
  62   2.0000      -0.533111       -14.5067
  63   2.0000      -0.529856       -14.4181
  64   2.0000      -0.513456       -13.9718
  65   2.0000      -0.504025       -13.7152
  66   2.0000      -0.499774       -13.5995
  67   2.0000      -0.497071       -13.5260
  68   2.0000      -0.478801       -13.0288
  69   2.0000      -0.463757       -12.6195
  70   2.0000      -0.460168       -12.5218
  71   2.0000      -0.452276       -12.3071
  72   2.0000      -0.364468        -9.9177
  73   2.0000      -0.344226        -9.3669
  74   2.0000      -0.327231        -8.9044
  75   2.0000      -0.321724        -8.7546
  76   2.0000      -0.309193        -8.4136
  77   0.0000       0.078495         2.1360
  78   0.0000       0.109058         2.9676
  79   0.0000       0.115196         3.1346
  80   0.0000       0.131774         3.5858
  81   0.0000       0.137065         3.7297

MULLIKEN ATOMIC CHARGES
-----------------------
   0 C :   -0.296930
   1 C :    0.030897
   2 O :   -0.356087
   3 C :    0.485567
   4 O :   -0.447543
   5 C :   -0.269584
   6 C :    0.200745
   7 C :   -0.304267
   8 N :   -0.128775
   9 C :    0.199154
  10 S :   -0.447169
  11 N :   -0.182280
  12 C :    0.038400
  13 C :    0.137326
  14 C :   -0.244809
  15 C :   -0.116334
  16 C :   -0.222464
  17 C :    0.305136
  18 O :   -0.347045
  19 C :   -0.312597
  20 H :    0.095806
  21 H :    0.121119
  22 H :    0.095740
  23 H :    0.113184
  24 H :    0.116313
  25 H :    0.136752
  26 H :    0.137273
  27 H :    0.094427
  28 H :    0.200188
  29 H :    0.189113
  30 H :    0.156811
  31 H :    0.143254
  32 H :    0.155970
  33 H :    0.155366
  34 H :    0.238124
  35 H :    0.129219
Sum of atomic charges:    0.0000000

LOEWDIN ATOMIC CHARGES
----------------------
   0 C :    0.108974
   1 C :    0.006184
   2 O :    0.285664
   3 C :   -0.372932
   4 O :    0.063653
   5 C :   -0.084965
   6 C :   -0.069124
   7 C :    0.124766
   8 N :    0.410609
   9 C :   -0.530880
  10 S :    0.013006
  11 N :    0.414134
  12 C :   -0.083949
  13 C :   -0.020835
  14 C :    0.009952
  15 C :    0.033300
  16 C :    0.022939
  17 C :   -0.218380
  18 O :    0.413067
  19 C :    0.009621
  20 H :   -0.028651
  21 H :   -0.021785
  22 H :   -0.026594
  23 H :   -0.028008
  24 H :   -0.025873
  25 H :   -0.011820
  26 H :   -0.006832
  27 H :   -0.016551
  28 H :   -0.052095
  29 H :   -0.054350
  30 H :   -0.002045
  31 H :   -0.030992
  32 H :   -0.016950
  33 H :   -0.024650
  34 H :   -0.148409
  35 H :   -0.039196

  Mayer bond orders larger than 0.100000
B(  0-C ,  1-C ) :   0.9464 B(  0-C , 20-H ) :   0.9772 B(  0-C , 21-H ) :   0.9769
B(  0-C , 22-H ) :   0.9808 B(  1-C ,  2-O ) :   0.8842 B(  1-C , 23-H ) :   0.9798
B(  1-C , 24-H ) :   0.9876 B(  2-O ,  3-C ) :   1.1709 B(  3-C ,  4-O ) :   1.9457
B(  3-C ,  5-C ) :   1.0628 B(  5-C ,  6-C ) :   1.6319 B(  5-C , 12-C ) :   0.9942
B(  6-C ,  7-C ) :   0.9429 B(  6-C ,  8-N ) :   1.1543 B(  7-C , 25-H ) :   0.9745
B(  7-C , 26-H ) :   0.9668 B(  7-C , 27-H ) :   0.9762 B(  8-N ,  9-C ) :   1.2014
B(  8-N , 28-H ) :   0.9409 B(  9-C , 10-S ) :   1.6326 B(  9-C , 11-N ) :   1.3059
B( 11-N , 12-C ) :   0.9640 B( 11-N , 29-H ) :   0.9549 B( 12-C , 13-C ) :   0.9505
B( 12-C , 30-H ) :   1.0044 B( 13-C , 14-C ) :   1.3608 B( 13-C , 19-C ) :   1.3324
B( 14-C , 15-C ) :   1.4022 B( 14-C , 31-H ) :   0.9740 B( 15-C , 16-C ) :   1.3544
B( 15-C , 32-H ) :   0.9761 B( 16-C , 17-C ) :   1.3367 B( 16-C , 33-H ) :   0.9748
B( 17-C , 18-O ) :   1.1237 B( 17-C , 19-C ) :   1.3749 B( 18-O , 34-H ) :   0.9784
B( 19-C , 35-H ) :   0.9645

MP2 TOTAL ENERGY:    -1274.307413204 Eh
FINAL SINGLE POINT ENERGY     -1274.307413204343

DIPOLE MOMENT
-------------
                                X             Y             Z
Electronic contribution:      7.14434     -12.10992      -8.41458
Nuclear contribution   :     -7.81549      14.28447       8.76283
                        -----------------------------------------
Total Dipole Moment    :     -0.67115       2.17455       0.34825
                        -----------------------------------------
Magnitude (a.u.)       :      2.30225
Magnitude (Debye)      :      5.85187

Rotational constants in cm-1:     0.010429     0.008905     0.005864
Rotational constants in MHz :   312.653010   266.963892   175.804884

                             ****ORCA TERMINATED NORMALLY****
TOTAL RUN TIME: 0 days 1 hours 57 minutes 1 seconds 50 msec
