                         Program Version 5.0.0 -  RELEASE  -
|  1> ! RI-MP2 cc-pVTZ cc-pVTZ/c TightSCF KeepDens NoKeepInts
|  2>
|  3> *xyz  0  1
|  4>     C   -17.9869369    0.6258840   15.0682922
|  5>     C   -17.3851849    2.0357482   15.2910961
|  6>     O   -16.2975777    2.1004126   14.4707399
|  7>     C   -15.2971803    2.9418191   14.7143580
|  8>     O   -15.4360098    3.8960611   15.5282232
|  9>     C   -14.1479645    2.9559328   13.7515849
| 10>     C   -13.8382770    2.0263916   12.8740944
| 11>     C   -14.5474604    0.7307282   12.6243245
| 12>     N   -12.6538174    2.1188474   12.1881458
| 13>     C   -11.6972398    2.9594532   12.4774723
| 14>     S   -10.3202617    2.9756864   11.5435363
| 15>     N   -11.8767334    3.8047835   13.5124624
| 16>     C   -13.2158731    4.1714534   13.8852122
| 17>     C   -13.7056377    5.3944638   13.1180126
| 18>     C   -13.4422054    6.7057919   13.6583938
| 19>     C   -13.8196913    7.8464827   12.9796644
| 20>     C   -14.5261862    7.6795640   11.7336807
| 21>     C   -14.8060681    6.4066864   11.2505371
| 22>     O   -15.4594766    6.2383496   10.0686807
| 23>     C   -14.3118817    5.2572490   11.8562503
| 24>     H   -19.0547867    0.6387548   14.8178570
| 25>     H   -17.9656970    0.1057260   16.0337839
| 26>     H   -17.3927595    0.0789071   14.3260268
| 27>     H   -18.0868871    2.7877733   14.9099638
| 28>     H   -17.2019110    2.1965832   16.3605514
| 29>     H   -15.5837065    0.8651136   12.2906721
| 30>     H   -14.5843908    0.2447178   13.6069840
| 31>     H   -14.0582024    0.0330149   11.9336702
| 32>     H   -12.6926307    1.4994562   11.3876369
| 33>     H   -11.0797173    4.3623023   13.7951363
| 34>     H   -13.1334490    4.4859212   14.9328316
| 35>     H   -13.1014329    6.8599895   14.6779492
| 36>     H   -13.5848250    8.8023056   13.4386156
| 37>     H   -14.8117722    8.5433854   11.1406805
| 38>     H   -15.4191293    5.2903710    9.8531861
| 39>     H   -14.4863394    4.2360729   11.5304285
| 40> *
| 41>
| 42>                          ****END OF INPUT****

CARTESIAN COORDINATES (ANGSTROEM)
---------------------------------
  C    -17.986937    0.625884   15.068292
  C    -17.385185    2.035748   15.291096
  O    -16.297578    2.100413   14.470740
  C    -15.297180    2.941819   14.714358
  O    -15.436010    3.896061   15.528223
  C    -14.147964    2.955933   13.751585
  C    -13.838277    2.026392   12.874094
  C    -14.547460    0.730728   12.624324
  N    -12.653817    2.118847   12.188146
  C    -11.697240    2.959453   12.477472
  S    -10.320262    2.975686   11.543536
  N    -11.876733    3.804783   13.512462
  C    -13.215873    4.171453   13.885212
  C    -13.705638    5.394464   13.118013
  C    -13.442205    6.705792   13.658394
  C    -13.819691    7.846483   12.979664
  C    -14.526186    7.679564   11.733681
  C    -14.806068    6.406686   11.250537
  O    -15.459477    6.238350   10.068681
  C    -14.311882    5.257249   11.856250
  H    -19.054787    0.638755   14.817857
  H    -17.965697    0.105726   16.033784
  H    -17.392760    0.078907   14.326027
  H    -18.086887    2.787773   14.909964
  H    -17.201911    2.196583   16.360551
  H    -15.583706    0.865114   12.290672
  H    -14.584391    0.244718   13.606984
  H    -14.058202    0.033015   11.933670
  H    -12.692631    1.499456   11.387637
  H    -11.079717    4.362302   13.795136
  H    -13.133449    4.485921   14.932832
  H    -13.101433    6.859990   14.677949
  H    -13.584825    8.802306   13.438616
  H    -14.811772    8.543385   11.140680
  H    -15.419129    5.290371    9.853186
  H    -14.486339    4.236073   11.530428

 Total Charge           Charge          ....    0
 Multiplicity           Mult            ....    1
 Number of Electrons    NEL             ....  154
 Basis Dimension        Dim             ....  828

ORBITAL ENERGIES
----------------

  NO   OCC          E(Eh)            E(eV)
   0   2.0000     -91.881864     -2500.2326
   1   2.0000     -20.621592      -561.1420
   2   2.0000     -20.588939      -560.2535
   3   2.0000     -20.544371      -559.0408
   4   2.0000     -15.635646      -425.4676
   5   2.0000     -15.606103      -424.6636
   6   2.0000     -11.404616      -310.3354
   7   2.0000     -11.375565      -309.5449
   8   2.0000     -11.329352      -308.2873
   9   2.0000     -11.307857      -307.7024
  10   2.0000     -11.301011      -307.5162
  11   2.0000     -11.298507      -307.4480
  12   2.0000     -11.268041      -306.6190
  13   2.0000     -11.262318      -306.4633
  14   2.0000     -11.259622      -306.3899
  15   2.0000     -11.250188      -306.1332
  16   2.0000     -11.238940      -305.8271
  17   2.0000     -11.235542      -305.7346
  18   2.0000     -11.235098      -305.7226
  19   2.0000     -11.232252      -305.6451
  20   2.0000      -8.887015      -241.8280
  21   2.0000      -6.568578      -178.7401
  22   2.0000      -6.566597      -178.6862
  23   2.0000      -6.566003      -178.6700
  24   2.0000      -1.489168       -40.5223
  25   2.0000      -1.408470       -38.3264
  26   2.0000      -1.376379       -37.4532
  27   2.0000      -1.347116       -36.6569
  28   2.0000      -1.258735       -34.2519
  29   2.0000      -1.156645       -31.4739
  30   2.0000      -1.132877       -30.8272
  31   2.0000      -1.056396       -28.7460
  32   2.0000      -1.043734       -28.4014
  33   2.0000      -1.015264       -27.6267
  34   2.0000      -1.006353       -27.3843
  35   2.0000      -0.987039       -26.8587
  36   2.0000      -0.928026       -25.2529
  37   2.0000      -0.909052       -24.7366
  38   2.0000      -0.871686       -23.7198
  39   2.0000      -0.840398       -22.8684
  40   2.0000      -0.828695       -22.5499
  41   2.0000      -0.812537       -22.1103
  42   2.0000      -0.781864       -21.2756
  43   2.0000      -0.754445       -20.5295
  44   2.0000      -0.735655       -20.0182
  45   2.0000      -0.705909       -19.2088
  46   2.0000      -0.702755       -19.1229
  47   2.0000      -0.689002       -18.7487
  48   2.0000      -0.680048       -18.5050
  49   2.0000      -0.667010       -18.1503
  50   2.0000      -0.663404       -18.0521
  51   2.0000      -0.656543       -17.8654
  52   2.0000      -0.633789       -17.2463
  53   2.0000      -0.618510       -16.8305
  54   2.0000      -0.605489       -16.4762
  55   2.0000      -0.595541       -16.2055
  56   2.0000      -0.592481       -16.1222
  57   2.0000      -0.589567       -16.0429
  58   2.0000      -0.580357       -15.7923
  59   2.0000      -0.572451       -15.5772
  60   2.0000      -0.568504       -15.4698
  61   2.0000      -0.557010       -15.1570
  62   2.0000      -0.540692       -14.7130
  63   2.0000      -0.522780       -14.2256
  64   2.0000      -0.513732       -13.9794
  65   2.0000      -0.508692       -13.8422
  66   2.0000      -0.506077       -13.7711
  67   2.0000      -0.499056       -13.5800
  68   2.0000      -0.475045       -12.9266
  69   2.0000      -0.462559       -12.5869
  70   2.0000      -0.455954       -12.4071
  71   2.0000      -0.447555       -12.1786
  72   2.0000      -0.372502       -10.1363
  73   2.0000      -0.342972        -9.3327
  74   2.0000      -0.323445        -8.8014
  75   2.0000      -0.317433        -8.6378
  76   2.0000      -0.310309        -8.4439
  77   0.0000       0.068850         1.8735
  78   0.0000       0.108062         2.9405
  79   0.0000       0.108363         2.9487
  80   0.0000       0.131171         3.5694
  81   0.0000       0.137718         3.7475

MULLIKEN ATOMIC CHARGES
-----------------------
   0 C :   -0.294757
   1 C :    0.034853
   2 O :   -0.268002
   3 C :    0.435732
   4 O :   -0.459284
   5 C :   -0.165408
   6 C :    0.099993
   7 C :   -0.317108
   8 N :   -0.047641
   9 C :    0.170971
  10 S :   -0.463233
  11 N :   -0.169891
  12 C :   -0.011389
  13 C :    0.101559
  14 C :   -0.210190
  15 C :   -0.110240
  16 C :   -0.248112
  17 C :    0.315777
  18 O :   -0.361051
  19 C :   -0.280159
  20 H :    0.103708
  21 H :    0.093822
  22 H :    0.101897
  23 H :    0.085313
  24 H :    0.102473
  25 H :    0.128096
  26 H :    0.129383
  27 H :    0.114117
  28 H :    0.198257
  29 H :    0.194750
  30 H :    0.153635
  31 H :    0.144234
  32 H :    0.165484
  33 H :    0.158613
  34 H :    0.241148
  35 H :    0.132651
Sum of atomic charges:    0.0000000

LOEWDIN ATOMIC CHARGES
----------------------
   0 C :    0.109673
   1 C :   -0.066275
   2 O :    0.390703
   3 C :   -0.384419
   4 O :    0.043735
   5 C :   -0.082857
   6 C :   -0.106620
   7 C :    0.128159
   8 N :    0.438496
   9 C :   -0.493542
  10 S :   -0.060254
  11 N :    0.413911
  12 C :   -0.065881
  13 C :   -0.010080
  14 C :    0.011651
  15 C :    0.051802
  16 C :    0.024647
  17 C :   -0.197305
  18 O :    0.384121
  19 C :    0.008322
  20 H :   -0.027707
  21 H :   -0.028746
  22 H :   -0.030277
  23 H :   -0.030619
  24 H :   -0.025071
  25 H :   -0.011817
  26 H :   -0.003946
  27 H :   -0.016978
  28 H :   -0.037082
  29 H :   -0.054671
  30 H :   -0.002285
  31 H :   -0.030554
  32 H :   -0.020737
  33 H :   -0.028995
  34 H :   -0.151580
  35 H :   -0.036922

  Mayer bond orders larger than 0.100000
B(  0-C ,  1-C ) :   0.9208 B(  0-C , 20-H ) :   0.9866 B(  0-C , 21-H ) :   0.9881
B(  0-C , 22-H ) :   0.9797 B(  1-C ,  2-O ) :   0.9096 B(  1-C , 23-H ) :   0.9892
B(  1-C , 24-H ) :   0.9818 B(  2-O ,  3-C ) :   1.2136 B(  3-C ,  4-O ) :   1.9100
B(  3-C ,  5-C ) :   1.0624 B(  5-C ,  6-C ) :   1.6456 B(  5-C , 12-C ) :   0.9807
B(  6-C ,  7-C ) :   0.9620 B(  6-C ,  8-N ) :   1.1323 B(  7-C , 25-H ) :   0.9673
B(  7-C , 26-H ) :   0.9646 B(  7-C , 27-H ) :   0.9904 B(  8-N ,  9-C ) :   1.2368
B(  8-N , 28-H ) :   0.9482 B(  9-C , 10-S ) :   1.5753 B(  9-C , 11-N ) :   1.3059
B( 11-N , 12-C ) :   0.9587 B( 11-N , 29-H ) :   0.9513 B( 12-C , 13-C ) :   0.9611
B( 12-C , 30-H ) :   0.9966 B( 13-C , 14-C ) :   1.3144 B( 13-C , 19-C ) :   1.3804
B( 14-C , 15-C ) :   1.4534 B( 14-C , 31-H ) :   0.9738 B( 15-C , 16-C ) :   1.3236
B( 15-C , 32-H ) :   0.9699 B( 16-C , 17-C ) :   1.4046 B( 16-C , 33-H ) :   0.9673
B( 17-C , 18-O ) :   1.1067 B( 17-C , 19-C ) :   1.3193 B( 18-O , 34-H ) :   0.9793
B( 19-C , 35-H ) :   0.9732

MP2 TOTAL ENERGY:    -1274.302886217 Eh
FINAL SINGLE POINT ENERGY     -1274.302886216853

DIPOLE MOMENT
-------------
                                X             Y             Z
Electronic contribution:     14.69911       8.01082      -5.49408
Nuclear contribution   :    -16.46651      -9.55536       6.00316
                        -----------------------------------------
Total Dipole Moment    :     -1.76740      -1.54454       0.50908
                        -----------------------------------------
Magnitude (a.u.)       :      2.40176
Magnitude (Debye)      :      6.10479

Rotational constants in cm-1:     0.011494     0.008197     0.005975
Rotational constants in MHz :   344.579389   245.734346   179.139207

                             ****ORCA TERMINATED NORMALLY****
TOTAL RUN TIME: 0 days 1 hours 52 minutes 7 seconds 345 msec
