                         Program Version 5.0.0 -  RELEASE  -
|  1> ! RI-MP2 cc-pVTZ cc-pVTZ/c TightSCF KeepDens NoKeepInts
|  2>
|  3> %pointcharges "srfp_output"
|  4>
|  5> *xyz  0  1
|  6>     C   -17.9869369    0.6258840   15.0682922
|  7>     C   -17.3851849    2.0357482   15.2910961
|  8>     O   -16.2975777    2.1004126   14.4707399
|  9>     C   -15.2971803    2.9418191   14.7143580
| 10>     O   -15.4360098    3.8960611   15.5282232
| 11>     C   -14.1479645    2.9559328   13.7515849
| 12>     C   -13.8382770    2.0263916   12.8740944
| 13>     C   -14.5474604    0.7307282   12.6243245
| 14>     N   -12.6538174    2.1188474   12.1881458
| 15>     C   -11.6972398    2.9594532   12.4774723
| 16>     S   -10.3202617    2.9756864   11.5435363
| 17>     N   -11.8767334    3.8047835   13.5124624
| 18>     C   -13.2158731    4.1714534   13.8852122
| 19>     C   -13.7056377    5.3944638   13.1180126
| 20>     C   -13.4422054    6.7057919   13.6583938
| 21>     C   -13.8196913    7.8464827   12.9796644
| 22>     C   -14.5261862    7.6795640   11.7336807
| 23>     C   -14.8060681    6.4066864   11.2505371
| 24>     O   -15.4594766    6.2383496   10.0686807
| 25>     C   -14.3118817    5.2572490   11.8562503
| 26>     H   -19.0547867    0.6387548   14.8178570
| 27>     H   -17.9656970    0.1057260   16.0337839
| 28>     H   -17.3927595    0.0789071   14.3260268
| 29>     H   -18.0868871    2.7877733   14.9099638
| 30>     H   -17.2019110    2.1965832   16.3605514
| 31>     H   -15.5837065    0.8651136   12.2906721
| 32>     H   -14.5843908    0.2447178   13.6069840
| 33>     H   -14.0582024    0.0330149   11.9336702
| 34>     H   -12.6926307    1.4994562   11.3876369
| 35>     H   -11.0797173    4.3623023   13.7951363
| 36>     H   -13.1334490    4.4859212   14.9328316
| 37>     H   -13.1014329    6.8599895   14.6779492
| 38>     H   -13.5848250    8.8023056   13.4386156
| 39>     H   -14.8117722    8.5433854   11.1406805
| 40>     H   -15.4191293    5.2903710    9.8531861
| 41>     H   -14.4863394    4.2360729   11.5304285
| 42> *
| 43>
| 44>                          ****END OF INPUT****

CARTESIAN COORDINATES (ANGSTROEM)
---------------------------------
  C    -17.986937    0.625884   15.068292
  C    -17.385185    2.035748   15.291096
  O    -16.297578    2.100413   14.470740
  C    -15.297180    2.941819   14.714358
  O    -15.436010    3.896061   15.528223
  C    -14.147964    2.955933   13.751585
  C    -13.838277    2.026392   12.874094
  C    -14.547460    0.730728   12.624324
  N    -12.653817    2.118847   12.188146
  C    -11.697240    2.959453   12.477472
  S    -10.320262    2.975686   11.543536
  N    -11.876733    3.804783   13.512462
  C    -13.215873    4.171453   13.885212
  C    -13.705638    5.394464   13.118013
  C    -13.442205    6.705792   13.658394
  C    -13.819691    7.846483   12.979664
  C    -14.526186    7.679564   11.733681
  C    -14.806068    6.406686   11.250537
  O    -15.459477    6.238350   10.068681
  C    -14.311882    5.257249   11.856250
  H    -19.054787    0.638755   14.817857
  H    -17.965697    0.105726   16.033784
  H    -17.392760    0.078907   14.326027
  H    -18.086887    2.787773   14.909964
  H    -17.201911    2.196583   16.360551
  H    -15.583706    0.865114   12.290672
  H    -14.584391    0.244718   13.606984
  H    -14.058202    0.033015   11.933670
  H    -12.692631    1.499456   11.387637
  H    -11.079717    4.362302   13.795136
  H    -13.133449    4.485921   14.932832
  H    -13.101433    6.859990   14.677949
  H    -13.584825    8.802306   13.438616
  H    -14.811772    8.543385   11.140680
  H    -15.419129    5.290371    9.853186
  H    -14.486339    4.236073   11.530428

 Total Charge           Charge          ....    0
 Multiplicity           Mult            ....    1
 Number of Electrons    NEL             ....  154
 Basis Dimension        Dim             ....  828

ORBITAL ENERGIES
----------------

  NO   OCC          E(Eh)            E(eV)
   0   2.0000     -90.400841     -2459.9319
   1   2.0000     -19.102116      -519.7950
   2   2.0000     -19.071657      -518.9662
   3   2.0000     -19.042729      -518.1790
   4   2.0000     -14.118173      -384.1750
   5   2.0000     -14.096825      -383.5941
   6   2.0000      -9.902172      -269.4518
   7   2.0000      -9.880757      -268.8691
   8   2.0000      -9.807685      -266.8807
   9   2.0000      -9.793744      -266.5013
  10   2.0000      -9.784648      -266.2538
  11   2.0000      -9.764869      -265.7156
  12   2.0000      -9.743922      -265.1456
  13   2.0000      -9.741535      -265.0806
  14   2.0000      -9.733548      -264.8633
  15   2.0000      -9.722719      -264.5686
  16   2.0000      -9.722478      -264.5621
  17   2.0000      -9.722285      -264.5568
  18   2.0000      -9.716724      -264.4055
  19   2.0000      -9.693579      -263.7757
  20   2.0000      -7.407707      -201.5740
  21   2.0000      -5.089722      -138.4984
  22   2.0000      -5.087703      -138.4434
  23   2.0000      -5.087313      -138.4328
  24   2.0000       0.028889         0.7861
  25   2.0000       0.107654         2.9294
  26   2.0000       0.137268         3.7353
  27   2.0000       0.153221         4.1694
  28   2.0000       0.256224         6.9722
  29   2.0000       0.357562         9.7298
  30   2.0000       0.382976        10.4213
  31   2.0000       0.469085        12.7644
  32   2.0000       0.477871        13.0035
  33   2.0000       0.500743        13.6259
  34   2.0000       0.515307        14.0222
  35   2.0000       0.521325        14.1860
  36   2.0000       0.587076        15.9751
  37   2.0000       0.618478        16.8296
  38   2.0000       0.641553        17.4576
  39   2.0000       0.677333        18.4312
  40   2.0000       0.690167        18.7804
  41   2.0000       0.705094        19.1866
  42   2.0000       0.737081        20.0570
  43   2.0000       0.760581        20.6965
  44   2.0000       0.781002        21.2521
  45   2.0000       0.814742        22.1703
  46   2.0000       0.819291        22.2940
  47   2.0000       0.822899        22.3922
  48   2.0000       0.834515        22.7083
  49   2.0000       0.848218        23.0812
  50   2.0000       0.852301        23.1923
  51   2.0000       0.865926        23.5630
  52   2.0000       0.883885        24.0517
  53   2.0000       0.903738        24.5920
  54   2.0000       0.918030        24.9809
  55   2.0000       0.922330        25.0979
  56   2.0000       0.930131        25.3102
  57   2.0000       0.931678        25.3523
  58   2.0000       0.946766        25.7628
  59   2.0000       0.953930        25.9577
  60   2.0000       0.955331        25.9959
  61   2.0000       0.969806        26.3898
  62   2.0000       0.978642        26.6302
  63   2.0000       0.986627        26.8475
  64   2.0000       1.003374        27.3032
  65   2.0000       1.004631        27.3374
  66   2.0000       1.010744        27.5037
  67   2.0000       1.025609        27.9082
  68   2.0000       1.035262        28.1709
  69   2.0000       1.041498        28.3406
  70   2.0000       1.061207        28.8769
  71   2.0000       1.066848        29.0304
  72   2.0000       1.137986        30.9662
  73   2.0000       1.154301        31.4101
  74   2.0000       1.160280        31.5728
  75   2.0000       1.176872        32.0243
  76   2.0000       1.195822        32.5400
  77   0.0000       1.579168        42.9713
  78   0.0000       1.623351        44.1736
  79   0.0000       1.651308        44.9344
  80   0.0000       1.659783        45.1650
  81   0.0000       1.670711        45.4624

MULLIKEN ATOMIC CHARGES
-----------------------
   0 C :   -0.296120
   1 C :    0.027809
   2 O :   -0.246394
   3 C :    0.508902
   4 O :   -0.617166
   5 C :   -0.158386
   6 C :    0.127970
   7 C :   -0.309025
   8 N :   -0.066328
   9 C :    0.325854
  10 S :   -0.752292
  11 N :   -0.189180
  12 C :    0.028354
  13 C :    0.043336
  14 C :   -0.227713
  15 C :   -0.138616
  16 C :   -0.312363
  17 C :    0.331829
  18 O :   -0.453990
  19 C :   -0.311114
  20 H :    0.110089
  21 H :    0.098672
  22 H :    0.110297
  23 H :    0.094842
  24 H :    0.104710
  25 H :    0.136231
  26 H :    0.134242
  27 H :    0.134642
  28 H :    0.261204
  29 H :    0.253132
  30 H :    0.160338
  31 H :    0.176661
  32 H :    0.207097
  33 H :    0.177267
  34 H :    0.324779
  35 H :    0.200434
Sum of atomic charges:    0.0000000

LOEWDIN ATOMIC CHARGES
----------------------
   0 C :    0.115386
   1 C :   -0.064006
   2 O :    0.407172
   3 C :   -0.351304
   4 O :   -0.059372
   5 C :   -0.079054
   6 C :   -0.079701
   7 C :    0.141722
   8 N :    0.459488
   9 C :   -0.455799
  10 S :   -0.244074
  11 N :    0.436278
  12 C :   -0.061154
  13 C :   -0.029362
  14 C :    0.009748
  15 C :    0.042520
  16 C :    0.007603
  17 C :   -0.210122
  18 O :    0.348319
  19 C :    0.017549
  20 H :   -0.024301
  21 H :   -0.025470
  22 H :   -0.026880
  23 H :   -0.028363
  24 H :   -0.023779
  25 H :   -0.005824
  26 H :    0.000447
  27 H :   -0.004573
  28 H :   -0.004338
  29 H :   -0.026678
  30 H :    0.001259
  31 H :   -0.019093
  32 H :   -0.010253
  33 H :   -0.024495
  34 H :   -0.110580
  35 H :   -0.018918

  Mayer bond orders larger than 0.100000
B(  0-C ,  1-C ) :   0.9248 B(  0-C , 20-H ) :   0.9853 B(  0-C , 21-H ) :   0.9870
B(  0-C , 22-H ) :   0.9780 B(  1-C ,  2-O ) :   0.8951 B(  1-C , 23-H ) :   0.9871
B(  1-C , 24-H ) :   0.9801 B(  2-O ,  3-C ) :   1.2657 B(  3-C ,  4-O ) :   1.8170
B(  3-C ,  5-C ) :   1.0916 B(  5-C ,  6-C ) :   1.6280 B(  5-C , 12-C ) :   0.9758
B(  6-C ,  7-C ) :   0.9650 B(  6-C ,  8-N ) :   1.1300 B(  7-C , 25-H ) :   0.9622
B(  7-C , 26-H ) :   0.9594 B(  7-C , 27-H ) :   0.9849 B(  8-N ,  9-C ) :   1.3357
B(  8-N , 28-H ) :   0.9151 B(  9-C , 10-S ) :   1.2289 B(  9-C , 11-N ) :   1.3929
B( 11-N , 12-C ) :   0.9462 B( 11-N , 29-H ) :   0.9232 B( 12-C , 13-C ) :   0.9520
B( 12-C , 30-H ) :   0.9960 B( 13-C , 14-C ) :   1.3013 B( 13-C , 19-C ) :   1.3382
B( 14-C , 15-C ) :   1.4413 B( 14-C , 31-H ) :   0.9672 B( 15-C , 16-C ) :   1.3153
B( 15-C , 32-H ) :   0.9564 B( 16-C , 17-C ) :   1.3743 B( 16-C , 33-H ) :   0.9620
B( 17-C , 18-O ) :   1.0993 B( 17-C , 19-C ) :   1.3464 B( 18-O , 34-H ) :   0.9168
B( 19-C , 35-H ) :   0.9567

MP2 TOTAL ENERGY:    -1274.443778391 Eh
FINAL SINGLE POINT ENERGY     -1274.443778391317

DIPOLE MOMENT
-------------
                                X             Y             Z
Electronic contribution:     13.69911       7.02535      -5.23995
Nuclear contribution   :    -16.46651      -9.55536       6.00316
                        -----------------------------------------
Total Dipole Moment    :     -2.76740      -2.53001       0.76321
                        -----------------------------------------
Magnitude (a.u.)       :      3.82648
Magnitude (Debye)      :      9.72613

Rotational constants in cm-1:     0.011494     0.008197     0.005975
Rotational constants in MHz :   344.579389   245.734346   179.139207

                             ****ORCA TERMINATED NORMALLY****
TOTAL RUN TIME: 0 days 1 hours 55 minutes 59 seconds 137 msec
