                         Program Version 5.0.0 -  RELEASE  -
|  1> ! RI-MP2 cc-pVTZ cc-pVTZ/c TightSCF KeepDens NoKeepInts
|  2>
|  3> %pointcharges "srfp_output"
|  4>
|  5> *xyz  0  1
|  6>     C     7.3612127    7.7953408    2.5701948
|  7>     C     8.1672947    8.8583672    3.3120743
|  8>     O     7.2778008    9.7460043    4.0232743
|  9>     C     6.8195382    9.4128769    5.2737712
| 10>     O     7.1190636    8.3981418    5.8368488
| 11>     C     6.0648748   10.4879479    6.0132194
| 12>     C     5.8798437   11.7376654    5.5738774
| 13>     C     6.3029363   12.3527345    4.2932089
| 14>     N     5.2458804   12.6530290    6.4089846
| 15>     C     4.8692944   12.3687709    7.6495876
| 16>     S     4.0929849   13.4265639    8.6330089
| 17>     N     5.3148395   11.1707699    8.1483641
| 18>     C     5.5387052    9.9941469    7.3107505
| 19>     C     4.2114130    9.2427202    7.0289098
| 20>     C     2.9973339    9.8835781    6.5747998
| 21>     C     1.8641287    9.1269046    6.1435365
| 22>     C     1.8947167    7.7305540    6.2803024
| 23>     C     3.0542279    7.0879165    6.8016465
| 24>     O     3.1525985    5.7405574    6.7642663
| 25>     C     4.1564852    7.8642855    7.2056055
| 26>     H     6.5079969    8.3060722    2.1071982
| 27>     H     7.0447228    7.0027857    3.2593110
| 28>     H     7.9281445    7.3211810    1.7596723
| 29>     H     8.8439963    8.4047296    4.0465665
| 30>     H     8.7376070    9.3941401    2.5433866
| 31>     H     6.0375262   13.4145171    4.2200258
| 32>     H     5.8281415   11.7755743    3.4903103
| 33>     H     7.3926769   12.2753607    4.1948811
| 34>     H     4.7987737   13.4904923    6.0558314
| 35>     H     5.1105076   11.0460642    9.1325711
| 36>     H     6.2116743    9.3005317    7.8295956
| 37>     H     2.9593782   10.9684562    6.5432602
| 38>     H     0.9529852    9.6014255    5.7913370
| 39>     H     1.0123070    7.1816659    5.9649073
| 40>     H     2.2961620    5.4798682    6.3831015
| 41>     H     5.0798957    7.3475733    7.4499832
| 42> *
| 43>
| 44>                          ****END OF INPUT****

CARTESIAN COORDINATES (ANGSTROEM)
---------------------------------
  C      7.361213    7.795341    2.570195
  C      8.167295    8.858367    3.312074
  O      7.277801    9.746004    4.023274
  C      6.819538    9.412877    5.273771
  O      7.119064    8.398142    5.836849
  C      6.064875   10.487948    6.013219
  C      5.879844   11.737665    5.573877
  C      6.302936   12.352734    4.293209
  N      5.245880   12.653029    6.408985
  C      4.869294   12.368771    7.649588
  S      4.092985   13.426564    8.633009
  N      5.314839   11.170770    8.148364
  C      5.538705    9.994147    7.310751
  C      4.211413    9.242720    7.028910
  C      2.997334    9.883578    6.574800
  C      1.864129    9.126905    6.143536
  C      1.894717    7.730554    6.280302
  C      3.054228    7.087917    6.801647
  O      3.152598    5.740557    6.764266
  C      4.156485    7.864285    7.205605
  H      6.507997    8.306072    2.107198
  H      7.044723    7.002786    3.259311
  H      7.928144    7.321181    1.759672
  H      8.843996    8.404730    4.046566
  H      8.737607    9.394140    2.543387
  H      6.037526   13.414517    4.220026
  H      5.828141   11.775574    3.490310
  H      7.392677   12.275361    4.194881
  H      4.798774   13.490492    6.055831
  H      5.110508   11.046064    9.132571
  H      6.211674    9.300532    7.829596
  H      2.959378   10.968456    6.543260
  H      0.952985    9.601425    5.791337
  H      1.012307    7.181666    5.964907
  H      2.296162    5.479868    6.383102
  H      5.079896    7.347573    7.449983

 Total Charge           Charge          ....    0
 Multiplicity           Mult            ....    1
 Number of Electrons    NEL             ....  154
 Basis Dimension        Dim             ....  828

ORBITAL ENERGIES
----------------

  NO   OCC          E(Eh)            E(eV)
   0   2.0000     -95.198136     -2590.4730
   1   2.0000     -23.873855      -649.6406
   2   2.0000     -23.866387      -649.4374
   3   2.0000     -23.839947      -648.7179
   4   2.0000     -18.903266      -514.3840
   5   2.0000     -18.880799      -513.7727
   6   2.0000     -14.681350      -399.4998
   7   2.0000     -14.670614      -399.2077
   8   2.0000     -14.598765      -397.2526
   9   2.0000     -14.587548      -396.9474
  10   2.0000     -14.578687      -396.7062
  11   2.0000     -14.556321      -396.0976
  12   2.0000     -14.535139      -395.5212
  13   2.0000     -14.526522      -395.2868
  14   2.0000     -14.524744      -395.2384
  15   2.0000     -14.514895      -394.9704
  16   2.0000     -14.509743      -394.8302
  17   2.0000     -14.507732      -394.7755
  18   2.0000     -14.504786      -394.6953
  19   2.0000     -14.481293      -394.0560
  20   2.0000     -12.205724      -332.1346
  21   2.0000      -9.887848      -269.0620
  22   2.0000      -9.885748      -269.0049
  23   2.0000      -9.885351      -268.9941
  24   2.0000      -4.740493      -128.9954
  25   2.0000      -4.689225      -127.6003
  26   2.0000      -4.649254      -126.5126
  27   2.0000      -4.635779      -126.1459
  28   2.0000      -4.517178      -122.9187
  29   2.0000      -4.428117      -120.4952
  30   2.0000      -4.402154      -119.7887
  31   2.0000      -4.315602      -117.4335
  32   2.0000      -4.304316      -117.1264
  33   2.0000      -4.282111      -116.5222
  34   2.0000      -4.276184      -116.3609
  35   2.0000      -4.263119      -116.0054
  36   2.0000      -4.198533      -114.2479
  37   2.0000      -4.159282      -113.1798
  38   2.0000      -4.127787      -112.3228
  39   2.0000      -4.108691      -111.8032
  40   2.0000      -4.099915      -111.5644
  41   2.0000      -4.085830      -111.1811
  42   2.0000      -4.033458      -109.7560
  43   2.0000      -4.019181      -109.3675
  44   2.0000      -3.998224      -108.7972
  45   2.0000      -3.972776      -108.1047
  46   2.0000      -3.968402      -107.9857
  47   2.0000      -3.958536      -107.7172
  48   2.0000      -3.944905      -107.3463
  49   2.0000      -3.928734      -106.9063
  50   2.0000      -3.924741      -106.7976
  51   2.0000      -3.914240      -106.5119
  52   2.0000      -3.908807      -106.3640
  53   2.0000      -3.885526      -105.7305
  54   2.0000      -3.881123      -105.6107
  55   2.0000      -3.872041      -105.3636
  56   2.0000      -3.861540      -105.0778
  57   2.0000      -3.854361      -104.8825
  58   2.0000      -3.847796      -104.7038
  59   2.0000      -3.839966      -104.4908
  60   2.0000      -3.833147      -104.3052
  61   2.0000      -3.819815      -103.9425
  62   2.0000      -3.817024      -103.8665
  63   2.0000      -3.797587      -103.3376
  64   2.0000      -3.791355      -103.1680
  65   2.0000      -3.786563      -103.0376
  66   2.0000      -3.772006      -102.6415
  67   2.0000      -3.762763      -102.3900
  68   2.0000      -3.754465      -102.1642
  69   2.0000      -3.744058      -101.8810
  70   2.0000      -3.729683      -101.4898
  71   2.0000      -3.727901      -101.4413
  72   2.0000      -3.653380       -99.4135
  73   2.0000      -3.642878       -99.1277
  74   2.0000      -3.627555       -98.7108
  75   2.0000      -3.614232       -98.3483
  76   2.0000      -3.582265       -97.4784
  77   0.0000      -3.209191       -87.3265
  78   0.0000      -3.149250       -85.6955
  79   0.0000      -3.147243       -85.6408
  80   0.0000      -3.125048       -85.0369
  81   0.0000      -3.120661       -84.9175

MULLIKEN ATOMIC CHARGES
-----------------------
   0 C :   -0.285520
   1 C :    0.021513
   2 O :   -0.334841
   3 C :    0.523361
   4 O :   -0.562569
   5 C :   -0.126988
   6 C :    0.151829
   7 C :   -0.281666
   8 N :   -0.096800
   9 C :    0.323533
  10 S :   -0.750101
  11 N :   -0.208705
  12 C :    0.051879
  13 C :    0.019523
  14 C :   -0.302512
  15 C :   -0.170191
  16 C :   -0.277235
  17 C :    0.291634
  18 O :   -0.438736
  19 C :   -0.211393
  20 H :    0.104321
  21 H :    0.091958
  22 H :    0.113292
  23 H :    0.103869
  24 H :    0.128103
  25 H :    0.123203
  26 H :    0.130741
  27 H :    0.134404
  28 H :    0.259166
  29 H :    0.236323
  30 H :    0.177887
  31 H :    0.190967
  32 H :    0.207519
  33 H :    0.176621
  34 H :    0.331341
  35 H :    0.154267
Sum of atomic charges:    0.0000000

LOEWDIN ATOMIC CHARGES
----------------------
   0 C :    0.106532
   1 C :   -0.011338
   2 O :    0.313563
   3 C :   -0.397535
   4 O :    0.055049
   5 C :   -0.093350
   6 C :   -0.052379
   7 C :    0.134877
   8 N :    0.446720
   9 C :   -0.459484
  10 S :   -0.209896
  11 N :    0.416795
  12 C :   -0.052432
  13 C :   -0.035567
  14 C :    0.004414
  15 C :    0.036355
  16 C :    0.004725
  17 C :   -0.193591
  18 O :    0.360601
  19 C :    0.004730
  20 H :   -0.022138
  21 H :   -0.031065
  22 H :   -0.018917
  23 H :   -0.031677
  24 H :   -0.016401
  25 H :   -0.007277
  26 H :   -0.003015
  27 H :   -0.000890
  28 H :   -0.013090
  29 H :   -0.040816
  30 H :    0.003652
  31 H :   -0.035296
  32 H :   -0.010109
  33 H :   -0.018974
  34 H :   -0.107791
  35 H :   -0.024984

  Mayer bond orders larger than 0.100000
B(  0-C ,  1-C ) :   0.9629 B(  0-C , 20-H ) :   0.9723 B(  0-C , 21-H ) :   0.9788
B(  0-C , 22-H ) :   0.9746 B(  1-C ,  2-O ) :   0.8741 B(  1-C , 23-H ) :   0.9806
B(  1-C , 24-H ) :   0.9832 B(  2-O ,  3-C ) :   1.1993 B(  3-C ,  4-O ) :   1.8748
B(  3-C ,  5-C ) :   1.0918 B(  5-C ,  6-C ) :   1.6458 B(  5-C , 12-C ) :   0.9561
B(  6-C ,  7-C ) :   0.9591 B(  6-C ,  8-N ) :   1.1294 B(  7-C , 25-H ) :   0.9864
B(  7-C , 26-H ) :   0.9619 B(  7-C , 27-H ) :   0.9587 B(  8-N ,  9-C ) :   1.3281
B(  8-N , 28-H ) :   0.9175 B(  9-C , 10-S ) :   1.2276 B(  9-C , 11-N ) :   1.3597
B( 11-N , 12-C ) :   0.9758 B( 11-N , 29-H ) :   0.9341 B( 12-C , 13-C ) :   0.9498
B( 12-C , 30-H ) :   0.9881 B( 13-C , 14-C ) :   1.3294 B( 13-C , 19-C ) :   1.3971
B( 14-C , 15-C ) :   1.4152 B( 14-C , 31-H ) :   0.9594 B( 15-C , 16-C ) :   1.3349
B( 15-C , 32-H ) :   0.9540 B( 16-C , 17-C ) :   1.3534 B( 16-C , 33-H ) :   0.9728
B( 17-C , 18-O ) :   1.1067 B( 17-C , 19-C ) :   1.3305 B( 18-O , 34-H ) :   0.9136
B( 19-C , 35-H ) :   0.9615

MP2 TOTAL ENERGY:    -1274.456493100 Eh
FINAL SINGLE POINT ENERGY     -1274.456493099858

DIPOLE MOMENT
-------------
                                X             Y             Z
Electronic contribution:     -5.21401       5.85035      13.73964
Nuclear contribution   :      5.54219      -6.61559     -17.41575
                        -----------------------------------------
Total Dipole Moment    :      0.32819      -0.76524      -3.67612
                        -----------------------------------------
Magnitude (a.u.)       :      3.76924
Magnitude (Debye)      :      9.58064

Rotational constants in cm-1:     0.010818     0.009222     0.005746
Rotational constants in MHz :   324.315361   276.471133   172.269857

                             ****ORCA TERMINATED NORMALLY****
TOTAL RUN TIME: 0 days 2 hours 3 minutes 30 seconds 203 msec
