                         Program Version 5.0.0 -  RELEASE  -
|  1> ! RI-MP2 cc-pVTZ cc-pVTZ/c TightSCF KeepDens NoKeepInts
|  2>
|  3> *xyz  0  1
|  4>     C     7.3612127    7.7953408    2.5701948
|  5>     C     8.1672947    8.8583672    3.3120743
|  6>     O     7.2778008    9.7460043    4.0232743
|  7>     C     6.8195382    9.4128769    5.2737712
|  8>     O     7.1190636    8.3981418    5.8368488
|  9>     C     6.0648748   10.4879479    6.0132194
| 10>     C     5.8798437   11.7376654    5.5738774
| 11>     C     6.3029363   12.3527345    4.2932089
| 12>     N     5.2458804   12.6530290    6.4089846
| 13>     C     4.8692944   12.3687709    7.6495876
| 14>     S     4.0929849   13.4265639    8.6330089
| 15>     N     5.3148395   11.1707699    8.1483641
| 16>     C     5.5387052    9.9941469    7.3107505
| 17>     C     4.2114130    9.2427202    7.0289098
| 18>     C     2.9973339    9.8835781    6.5747998
| 19>     C     1.8641287    9.1269046    6.1435365
| 20>     C     1.8947167    7.7305540    6.2803024
| 21>     C     3.0542279    7.0879165    6.8016465
| 22>     O     3.1525985    5.7405574    6.7642663
| 23>     C     4.1564852    7.8642855    7.2056055
| 24>     H     6.5079969    8.3060722    2.1071982
| 25>     H     7.0447228    7.0027857    3.2593110
| 26>     H     7.9281445    7.3211810    1.7596723
| 27>     H     8.8439963    8.4047296    4.0465665
| 28>     H     8.7376070    9.3941401    2.5433866
| 29>     H     6.0375262   13.4145171    4.2200258
| 30>     H     5.8281415   11.7755743    3.4903103
| 31>     H     7.3926769   12.2753607    4.1948811
| 32>     H     4.7987737   13.4904923    6.0558314
| 33>     H     5.1105076   11.0460642    9.1325711
| 34>     H     6.2116743    9.3005317    7.8295956
| 35>     H     2.9593782   10.9684562    6.5432602
| 36>     H     0.9529852    9.6014255    5.7913370
| 37>     H     1.0123070    7.1816659    5.9649073
| 38>     H     2.2961620    5.4798682    6.3831015
| 39>     H     5.0798957    7.3475733    7.4499832
| 40> *
| 41>
| 42>                          ****END OF INPUT****

CARTESIAN COORDINATES (ANGSTROEM)
---------------------------------
  C      7.361213    7.795341    2.570195
  C      8.167295    8.858367    3.312074
  O      7.277801    9.746004    4.023274
  C      6.819538    9.412877    5.273771
  O      7.119064    8.398142    5.836849
  C      6.064875   10.487948    6.013219
  C      5.879844   11.737665    5.573877
  C      6.302936   12.352734    4.293209
  N      5.245880   12.653029    6.408985
  C      4.869294   12.368771    7.649588
  S      4.092985   13.426564    8.633009
  N      5.314839   11.170770    8.148364
  C      5.538705    9.994147    7.310751
  C      4.211413    9.242720    7.028910
  C      2.997334    9.883578    6.574800
  C      1.864129    9.126905    6.143536
  C      1.894717    7.730554    6.280302
  C      3.054228    7.087917    6.801647
  O      3.152598    5.740557    6.764266
  C      4.156485    7.864285    7.205605
  H      6.507997    8.306072    2.107198
  H      7.044723    7.002786    3.259311
  H      7.928144    7.321181    1.759672
  H      8.843996    8.404730    4.046566
  H      8.737607    9.394140    2.543387
  H      6.037526   13.414517    4.220026
  H      5.828141   11.775574    3.490310
  H      7.392677   12.275361    4.194881
  H      4.798774   13.490492    6.055831
  H      5.110508   11.046064    9.132571
  H      6.211674    9.300532    7.829596
  H      2.959378   10.968456    6.543260
  H      0.952985    9.601425    5.791337
  H      1.012307    7.181666    5.964907
  H      2.296162    5.479868    6.383102
  H      5.079896    7.347573    7.449983

 Total Charge           Charge          ....    0
 Multiplicity           Mult            ....    1
 Number of Electrons    NEL             ....  154
 Basis Dimension        Dim             ....  828

ORBITAL ENERGIES
----------------

  NO   OCC          E(Eh)            E(eV)
   0   2.0000     -91.886821     -2500.3675
   1   2.0000     -20.604506      -560.6771
   2   2.0000     -20.595499      -560.4320
   3   2.0000     -20.549161      -559.1711
   4   2.0000     -15.627260      -425.2394
   5   2.0000     -15.596722      -424.4084
   6   2.0000     -11.394325      -310.0554
   7   2.0000     -11.372280      -309.4555
   8   2.0000     -11.327137      -308.2271
   9   2.0000     -11.312196      -307.8205
  10   2.0000     -11.301628      -307.5329
  11   2.0000     -11.299585      -307.4773
  12   2.0000     -11.257444      -306.3306
  13   2.0000     -11.254296      -306.2450
  14   2.0000     -11.254152      -306.2410
  15   2.0000     -11.252250      -306.1893
  16   2.0000     -11.238848      -305.8246
  17   2.0000     -11.238616      -305.8183
  18   2.0000     -11.229343      -305.5660
  19   2.0000     -11.226897      -305.4994
  20   2.0000      -8.892577      -241.9793
  21   2.0000      -6.574215      -178.8935
  22   2.0000      -6.572171      -178.8379
  23   2.0000      -6.571560      -178.8212
  24   2.0000      -1.459563       -39.7167
  25   2.0000      -1.417063       -38.5602
  26   2.0000      -1.369326       -37.2613
  27   2.0000      -1.356220       -36.9046
  28   2.0000      -1.239088       -33.7173
  29   2.0000      -1.149864       -31.2894
  30   2.0000      -1.125995       -30.6399
  31   2.0000      -1.044551       -28.4237
  32   2.0000      -1.040222       -28.3059
  33   2.0000      -1.010176       -27.4883
  34   2.0000      -0.991161       -26.9709
  35   2.0000      -0.984719       -26.7956
  36   2.0000      -0.923867       -25.1397
  37   2.0000      -0.892186       -24.2776
  38   2.0000      -0.849908       -23.1272
  39   2.0000      -0.836039       -22.7498
  40   2.0000      -0.824991       -22.4492
  41   2.0000      -0.814036       -22.1510
  42   2.0000      -0.757741       -20.6192
  43   2.0000      -0.742355       -20.2005
  44   2.0000      -0.724028       -19.7018
  45   2.0000      -0.699527       -19.0351
  46   2.0000      -0.685658       -18.6577
  47   2.0000      -0.680963       -18.5300
  48   2.0000      -0.669801       -18.2262
  49   2.0000      -0.659624       -17.9493
  50   2.0000      -0.650763       -17.7082
  51   2.0000      -0.641780       -17.4637
  52   2.0000      -0.637091       -17.3361
  53   2.0000      -0.613306       -16.6889
  54   2.0000      -0.611748       -16.6465
  55   2.0000      -0.596933       -16.2434
  56   2.0000      -0.594350       -16.1731
  57   2.0000      -0.587298       -15.9812
  58   2.0000      -0.577070       -15.7029
  59   2.0000      -0.567512       -15.4428
  60   2.0000      -0.559470       -15.2239
  61   2.0000      -0.552897       -15.0451
  62   2.0000      -0.535552       -14.5731
  63   2.0000      -0.529324       -14.4036
  64   2.0000      -0.520246       -14.1566
  65   2.0000      -0.508482       -13.8365
  66   2.0000      -0.498819       -13.5736
  67   2.0000      -0.495624       -13.4866
  68   2.0000      -0.477303       -12.9881
  69   2.0000      -0.463048       -12.6002
  70   2.0000      -0.457939       -12.4611
  71   2.0000      -0.449542       -12.2327
  72   2.0000      -0.360829        -9.8187
  73   2.0000      -0.346368        -9.4252
  74   2.0000      -0.327668        -8.9163
  75   2.0000      -0.319372        -8.6906
  76   2.0000      -0.302617        -8.2346
  77   0.0000       0.074690         2.0324
  78   0.0000       0.120200         3.2708
  79   0.0000       0.126727         3.4484
  80   0.0000       0.128392         3.4937
  81   0.0000       0.138326         3.7640

MULLIKEN ATOMIC CHARGES
-----------------------
   0 C :   -0.294045
   1 C :    0.030485
   2 O :   -0.353139
   3 C :    0.458016
   4 O :   -0.424487
   5 C :   -0.115156
   6 C :    0.117444
   7 C :   -0.285122
   8 N :   -0.079662
   9 C :    0.151085
  10 S :   -0.434985
  11 N :   -0.189191
  12 C :    0.026926
  13 C :    0.041034
  14 C :   -0.230329
  15 C :   -0.150653
  16 C :   -0.269824
  17 C :    0.282741
  18 O :   -0.346480
  19 C :   -0.201990
  20 H :    0.093342
  21 H :    0.116098
  22 H :    0.098440
  23 H :    0.104754
  24 H :    0.106306
  25 H :    0.103361
  26 H :    0.123850
  27 H :    0.127101
  28 H :    0.191339
  29 H :    0.176420
  30 H :    0.170321
  31 H :    0.154564
  32 H :    0.166769
  33 H :    0.127135
  34 H :    0.244236
  35 H :    0.163293
Sum of atomic charges:    0.0000000

LOEWDIN ATOMIC CHARGES
----------------------
   0 C :    0.104152
   1 C :   -0.017820
   2 O :    0.298327
   3 C :   -0.421698
   4 O :    0.138684
   5 C :   -0.094417
   6 C :   -0.076511
   7 C :    0.123079
   8 N :    0.422556
   9 C :   -0.499364
  10 S :   -0.017601
  11 N :    0.394836
  12 C :   -0.058875
  13 C :   -0.023063
  14 C :    0.022912
  15 C :    0.038530
  16 C :   -0.009623
  17 C :   -0.184405
  18 O :    0.393894
  19 C :    0.017577
  20 H :   -0.026714
  21 H :   -0.023554
  22 H :   -0.025246
  23 H :   -0.029791
  24 H :   -0.026067
  25 H :   -0.018182
  26 H :   -0.008224
  27 H :   -0.005726
  28 H :   -0.047562
  29 H :   -0.068527
  30 H :    0.000583
  31 H :   -0.041271
  32 H :   -0.023175
  33 H :   -0.038589
  34 H :   -0.147357
  35 H :   -0.021769

  Mayer bond orders larger than 0.100000
B(  0-C ,  1-C ) :   0.9627 B(  0-C , 20-H ) :   0.9755 B(  0-C , 21-H ) :   0.9767
B(  0-C , 22-H ) :   0.9769 B(  1-C ,  2-O ) :   0.8929 B(  1-C , 23-H ) :   0.9777
B(  1-C , 24-H ) :   0.9861 B(  2-O ,  3-C ) :   1.1536 B(  3-C ,  4-O ) :   1.9587
B(  3-C ,  5-C ) :   1.0501 B(  5-C ,  6-C ) :   1.6614 B(  5-C , 12-C ) :   0.9592
B(  6-C ,  7-C ) :   0.9550 B(  6-C ,  8-N ) :   1.1348 B(  7-C , 25-H ) :   0.9904
B(  7-C , 26-H ) :   0.9666 B(  7-C , 27-H ) :   0.9648 B(  8-N ,  9-C ) :   1.2121
B(  8-N , 28-H ) :   0.9467 B(  9-C , 10-S ) :   1.6301 B(  9-C , 11-N ) :   1.2678
B( 11-N , 12-C ) :   0.9856 B( 11-N , 29-H ) :   0.9598 B( 12-C , 13-C ) :   0.9524
B( 12-C , 30-H ) :   0.9900 B( 13-C , 14-C ) :   1.3472 B( 13-C , 19-C ) :   1.4087
B( 14-C , 15-C ) :   1.4331 B( 14-C , 31-H ) :   0.9643 B( 15-C , 16-C ) :   1.3534
B( 15-C , 32-H ) :   0.9673 B( 16-C , 17-C ) :   1.3393 B( 16-C , 33-H ) :   0.9878
B( 17-C , 18-O ) :   1.1130 B( 17-C , 19-C ) :   1.3446 B( 18-O , 34-H ) :   0.9776
B( 19-C , 35-H ) :   0.9551

MP2 TOTAL ENERGY:    -1274.329276115 Eh
FINAL SINGLE POINT ENERGY     -1274.329276115169

DIPOLE MOMENT
-------------
                                X             Y             Z
Electronic contribution:     -5.25835       6.12199      15.14801
Nuclear contribution   :      5.54219      -6.61559     -17.41575
                        -----------------------------------------
Total Dipole Moment    :      0.28384      -0.49360      -2.26774
                        -----------------------------------------
Magnitude (a.u.)       :      2.33813
Magnitude (Debye)      :      5.94306

Rotational constants in cm-1:     0.010818     0.009222     0.005746
Rotational constants in MHz :   324.315361   276.471133   172.269857

                             ****ORCA TERMINATED NORMALLY****
TOTAL RUN TIME: 0 days 2 hours 1 minutes 5 seconds 603 msec
