                         Program Version 5.0.0 -  RELEASE  -
|  1> ! RI-MP2 cc-pVTZ cc-pVTZ/c TightSCF KeepDens NoKeepInts
|  2>
|  3> *xyz  0  1
|  4>     C    -2.4835253   14.6293394    7.7937730
|  5>     C    -3.9202917   14.2744813    7.7458046
|  6>     O    -4.3287013   14.6592660    6.4162481
|  7>     C    -5.6443702   14.6229965    5.9532897
|  8>     O    -6.6098783   14.3410118    6.6272874
|  9>     C    -5.9128025   15.1795610    4.5988326
| 10>     C    -4.9898069   15.4278253    3.6559957
| 11>     C    -3.4474000   15.3644639    3.7902007
| 12>     N    -5.3188559   15.9994903    2.3818605
| 13>     C    -6.4774183   16.5754677    2.1885827
| 14>     S    -6.8430223   17.4617927    0.7800522
| 15>     N    -7.3982058   16.4668016    3.1858512
| 16>     C    -7.3517385   15.3277999    4.1217201
| 17>     C    -7.9438125   14.0729659    3.4712109
| 18>     C    -9.2817477   13.9552726    3.0774197
| 19>     C    -9.7984437   12.7357767    2.6733922
| 20>     C    -9.0631370   11.5711069    2.6046089
| 21>     C    -7.7190910   11.6038873    3.0182146
| 22>     O    -6.9509992   10.4806872    2.9623862
| 23>     C    -7.1622442   12.8512732    3.4226503
| 24>     H    -2.5055934   15.7230410    7.8744707
| 25>     H    -1.8899395   14.5319486    6.8765153
| 26>     H    -1.9358030   14.2767680    8.6763167
| 27>     H    -4.0926566   13.2056300    7.9219772
| 28>     H    -4.5439523   14.7869289    8.4885293
| 29>     H    -2.8676481   15.5945638    2.8879084
| 30>     H    -3.3076890   14.3167324    4.0833474
| 31>     H    -3.0617311   15.8813385    4.6774946
| 32>     H    -4.5893270   16.1432860    1.6940546
| 33>     H    -8.2606399   16.9842749    3.0658678
| 34>     H    -7.9488376   15.6248981    4.9925789
| 35>     H    -9.8658854   14.8684334    3.1431567
| 36>     H   -10.7800369   12.7086797    2.2095631
| 37>     H    -9.4858374   10.6448614    2.2267339
| 38>     H    -7.5488628    9.8578234    2.5136891
| 39>     H    -6.1248472   12.8046728    3.7405107
| 40> *
| 41>
| 42>                          ****END OF INPUT****

CARTESIAN COORDINATES (ANGSTROEM)
---------------------------------
  C     -2.483525   14.629339    7.793773
  C     -3.920292   14.274481    7.745805
  O     -4.328701   14.659266    6.416248
  C     -5.644370   14.622996    5.953290
  O     -6.609878   14.341012    6.627287
  C     -5.912802   15.179561    4.598833
  C     -4.989807   15.427825    3.655996
  C     -3.447400   15.364464    3.790201
  N     -5.318856   15.999490    2.381861
  C     -6.477418   16.575468    2.188583
  S     -6.843022   17.461793    0.780052
  N     -7.398206   16.466802    3.185851
  C     -7.351738   15.327800    4.121720
  C     -7.943812   14.072966    3.471211
  C     -9.281748   13.955273    3.077420
  C     -9.798444   12.735777    2.673392
  C     -9.063137   11.571107    2.604609
  C     -7.719091   11.603887    3.018215
  O     -6.950999   10.480687    2.962386
  C     -7.162244   12.851273    3.422650
  H     -2.505593   15.723041    7.874471
  H     -1.889939   14.531949    6.876515
  H     -1.935803   14.276768    8.676317
  H     -4.092657   13.205630    7.921977
  H     -4.543952   14.786929    8.488529
  H     -2.867648   15.594564    2.887908
  H     -3.307689   14.316732    4.083347
  H     -3.061731   15.881338    4.677495
  H     -4.589327   16.143286    1.694055
  H     -8.260640   16.984275    3.065868
  H     -7.948838   15.624898    4.992579
  H     -9.865885   14.868433    3.143157
  H    -10.780037   12.708680    2.209563
  H     -9.485837   10.644861    2.226734
  H     -7.548863    9.857823    2.513689
  H     -6.124847   12.804673    3.740511

 Total Charge           Charge          ....    0
 Multiplicity           Mult            ....    1
 Number of Electrons    NEL             ....  154
 Basis Dimension        Dim             ....  828

ORBITAL ENERGIES
----------------

  NO   OCC          E(Eh)            E(eV)
   0   2.0000     -91.878818     -2500.1498
   1   2.0000     -20.609655      -560.8172
   2   2.0000     -20.599071      -560.5292
   3   2.0000     -20.553915      -559.3005
   4   2.0000     -15.634525      -425.4371
   5   2.0000     -15.602012      -424.5523
   6   2.0000     -11.403508      -310.3052
   7   2.0000     -11.373087      -309.4774
   8   2.0000     -11.338827      -308.5452
   9   2.0000     -11.312954      -307.8411
  10   2.0000     -11.308199      -307.7117
  11   2.0000     -11.305191      -307.6299
  12   2.0000     -11.263973      -306.5083
  13   2.0000     -11.263541      -306.4965
  14   2.0000     -11.260896      -306.4246
  15   2.0000     -11.245687      -306.0107
  16   2.0000     -11.241474      -305.8961
  17   2.0000     -11.239271      -305.8361
  18   2.0000     -11.235375      -305.7301
  19   2.0000     -11.234313      -305.7012
  20   2.0000      -8.882475      -241.7044
  21   2.0000      -6.563928      -178.6136
  22   2.0000      -6.562015      -178.5615
  23   2.0000      -6.561511      -178.5478
  24   2.0000      -1.451240       -39.4903
  25   2.0000      -1.416354       -38.5409
  26   2.0000      -1.369625       -37.2694
  27   2.0000      -1.355203       -36.8769
  28   2.0000      -1.236563       -33.6486
  29   2.0000      -1.153674       -31.3931
  30   2.0000      -1.127980       -30.6939
  31   2.0000      -1.059138       -28.8206
  32   2.0000      -1.040248       -28.3066
  33   2.0000      -1.007315       -27.4104
  34   2.0000      -1.000272       -27.2188
  35   2.0000      -0.970569       -26.4105
  36   2.0000      -0.919935       -25.0327
  37   2.0000      -0.892339       -24.2818
  38   2.0000      -0.851371       -23.1670
  39   2.0000      -0.843638       -22.9566
  40   2.0000      -0.828972       -22.5575
  41   2.0000      -0.820327       -22.3222
  42   2.0000      -0.768445       -20.9105
  43   2.0000      -0.737158       -20.0591
  44   2.0000      -0.726865       -19.7790
  45   2.0000      -0.698110       -18.9965
  46   2.0000      -0.693800       -18.8793
  47   2.0000      -0.684141       -18.6164
  48   2.0000      -0.677498       -18.4357
  49   2.0000      -0.664644       -18.0859
  50   2.0000      -0.656794       -17.8723
  51   2.0000      -0.642527       -17.4840
  52   2.0000      -0.636245       -17.3131
  53   2.0000      -0.610925       -16.6241
  54   2.0000      -0.601321       -16.3628
  55   2.0000      -0.596168       -16.2225
  56   2.0000      -0.590929       -16.0800
  57   2.0000      -0.585853       -15.9419
  58   2.0000      -0.580727       -15.8024
  59   2.0000      -0.577916       -15.7259
  60   2.0000      -0.570196       -15.5158
  61   2.0000      -0.563789       -15.3415
  62   2.0000      -0.533333       -14.5127
  63   2.0000      -0.528558       -14.3828
  64   2.0000      -0.524202       -14.2643
  65   2.0000      -0.510352       -13.8874
  66   2.0000      -0.499151       -13.5826
  67   2.0000      -0.489606       -13.3229
  68   2.0000      -0.477425       -12.9914
  69   2.0000      -0.466055       -12.6820
  70   2.0000      -0.459699       -12.5091
  71   2.0000      -0.444172       -12.0865
  72   2.0000      -0.372129       -10.1261
  73   2.0000      -0.342495        -9.3198
  74   2.0000      -0.318941        -8.6788
  75   2.0000      -0.315112        -8.5746
  76   2.0000      -0.308459        -8.3936
  77   0.0000       0.077940         2.1209
  78   0.0000       0.106935         2.9098
  79   0.0000       0.118089         3.2134
  80   0.0000       0.127593         3.4720
  81   0.0000       0.135791         3.6951

MULLIKEN ATOMIC CHARGES
-----------------------
   0 C :   -0.295662
   1 C :    0.056922
   2 O :   -0.354612
   3 C :    0.468034
   4 O :   -0.408090
   5 C :   -0.181801
   6 C :    0.133440
   7 C :   -0.292221
   8 N :   -0.103616
   9 C :    0.199420
  10 S :   -0.490167
  11 N :   -0.210695
  12 C :    0.034454
  13 C :    0.078101
  14 C :   -0.188170
  15 C :   -0.115897
  16 C :   -0.264981
  17 C :    0.285464
  18 O :   -0.357115
  19 C :   -0.222808
  20 H :    0.092811
  21 H :    0.108593
  22 H :    0.111479
  23 H :    0.091499
  24 H :    0.103016
  25 H :    0.113213
  26 H :    0.118495
  27 H :    0.137630
  28 H :    0.204704
  29 H :    0.194454
  30 H :    0.151417
  31 H :    0.135608
  32 H :    0.147134
  33 H :    0.128371
  34 H :    0.244871
  35 H :    0.146704
Sum of atomic charges:   -0.0000000

LOEWDIN ATOMIC CHARGES
----------------------
   0 C :    0.091527
   1 C :   -0.026053
   2 O :    0.286820
   3 C :   -0.401108
   4 O :    0.124932
   5 C :   -0.095620
   6 C :   -0.029563
   7 C :    0.129097
   8 N :    0.421402
   9 C :   -0.458963
  10 S :   -0.114171
  11 N :    0.395840
  12 C :   -0.043567
  13 C :   -0.016067
  14 C :    0.011125
  15 C :    0.029287
  16 C :   -0.001840
  17 C :   -0.180009
  18 O :    0.382257
  19 C :    0.035735
  20 H :   -0.019559
  21 H :   -0.020976
  22 H :   -0.019156
  23 H :   -0.028273
  24 H :   -0.020327
  25 H :   -0.024367
  26 H :   -0.015546
  27 H :   -0.014231
  28 H :   -0.042439
  29 H :   -0.068320
  30 H :   -0.000918
  31 H :   -0.028711
  32 H :   -0.017298
  33 H :   -0.031562
  34 H :   -0.149714
  35 H :   -0.039665

  Mayer bond orders larger than 0.100000
B(  0-C ,  1-C ) :   0.9672 B(  0-C , 20-H ) :   0.9769 B(  0-C , 21-H ) :   0.9768
B(  0-C , 22-H ) :   0.9798 B(  1-C ,  2-O ) :   0.8965 B(  1-C , 23-H ) :   0.9802
B(  1-C , 24-H ) :   0.9750 B(  2-O ,  3-C ) :   1.1634 B(  3-C ,  4-O ) :   1.9941
B(  3-C ,  5-C ) :   1.0245 B(  5-C ,  6-C ) :   1.6655 B(  5-C , 12-C ) :   0.9937
B(  6-C ,  7-C ) :   0.9550 B(  6-C ,  8-N ) :   1.1004 B(  7-C , 25-H ) :   0.9908
B(  7-C , 26-H ) :   0.9643 B(  7-C , 27-H ) :   0.9603 B(  8-N ,  9-C ) :   1.2879
B(  8-N , 28-H ) :   0.9418 B(  9-C , 10-S ) :   1.5040 B(  9-C , 11-N ) :   1.2875
B( 11-N , 12-C ) :   0.9326 B( 11-N , 29-H ) :   0.9572 B( 12-C , 13-C ) :   1.0014
B( 12-C , 30-H ) :   0.9729 B( 13-C , 14-C ) :   1.3779 B( 13-C , 19-C ) :   1.3569
B( 14-C , 15-C ) :   1.3896 B( 14-C , 31-H ) :   0.9754 B( 15-C , 16-C ) :   1.3743
B( 15-C , 32-H ) :   0.9750 B( 16-C , 17-C ) :   1.3253 B( 16-C , 33-H ) :   0.9858
B( 17-C , 18-O ) :   1.1073 B( 17-C , 19-C ) :   1.3888 B( 18-O , 34-H ) :   0.9774
B( 19-C , 35-H ) :   0.9574

MP2 TOTAL ENERGY:    -1274.306533118 Eh
FINAL SINGLE POINT ENERGY     -1274.306533118025

DIPOLE MOMENT
-------------
                                X             Y             Z
Electronic contribution:    -11.51042       3.56305     -11.14770
Nuclear contribution   :     12.65683      -4.81612      12.41166
                        -----------------------------------------
Total Dipole Moment    :      1.14642      -1.25307       1.26395
                        -----------------------------------------
Magnitude (a.u.)       :      2.11708
Magnitude (Debye)      :      5.38120

Rotational constants in cm-1:     0.011151     0.008114     0.005601
Rotational constants in MHz :   334.313254   243.247669   167.899404

                             ****ORCA TERMINATED NORMALLY****
TOTAL RUN TIME: 0 days 1 hours 53 minutes 47 seconds 646 msec
