                         Program Version 5.0.0 -  RELEASE  -
|  1> ! RI-MP2 cc-pVTZ cc-pVTZ/c TightSCF KeepDens NoKeepInts
|  2>
|  3> %pointcharges "srfp_output"
|  4>
|  5> *xyz  0  1
|  6>     C    -2.4835253   14.6293394    7.7937730
|  7>     C    -3.9202917   14.2744813    7.7458046
|  8>     O    -4.3287013   14.6592660    6.4162481
|  9>     C    -5.6443702   14.6229965    5.9532897
| 10>     O    -6.6098783   14.3410118    6.6272874
| 11>     C    -5.9128025   15.1795610    4.5988326
| 12>     C    -4.9898069   15.4278253    3.6559957
| 13>     C    -3.4474000   15.3644639    3.7902007
| 14>     N    -5.3188559   15.9994903    2.3818605
| 15>     C    -6.4774183   16.5754677    2.1885827
| 16>     S    -6.8430223   17.4617927    0.7800522
| 17>     N    -7.3982058   16.4668016    3.1858512
| 18>     C    -7.3517385   15.3277999    4.1217201
| 19>     C    -7.9438125   14.0729659    3.4712109
| 20>     C    -9.2817477   13.9552726    3.0774197
| 21>     C    -9.7984437   12.7357767    2.6733922
| 22>     C    -9.0631370   11.5711069    2.6046089
| 23>     C    -7.7190910   11.6038873    3.0182146
| 24>     O    -6.9509992   10.4806872    2.9623862
| 25>     C    -7.1622442   12.8512732    3.4226503
| 26>     H    -2.5055934   15.7230410    7.8744707
| 27>     H    -1.8899395   14.5319486    6.8765153
| 28>     H    -1.9358030   14.2767680    8.6763167
| 29>     H    -4.0926566   13.2056300    7.9219772
| 30>     H    -4.5439523   14.7869289    8.4885293
| 31>     H    -2.8676481   15.5945638    2.8879084
| 32>     H    -3.3076890   14.3167324    4.0833474
| 33>     H    -3.0617311   15.8813385    4.6774946
| 34>     H    -4.5893270   16.1432860    1.6940546
| 35>     H    -8.2606399   16.9842749    3.0658678
| 36>     H    -7.9488376   15.6248981    4.9925789
| 37>     H    -9.8658854   14.8684334    3.1431567
| 38>     H   -10.7800369   12.7086797    2.2095631
| 39>     H    -9.4858374   10.6448614    2.2267339
| 40>     H    -7.5488628    9.8578234    2.5136891
| 41>     H    -6.1248472   12.8046728    3.7405107
| 42> *
| 43>
| 44>                          ****END OF INPUT****

CARTESIAN COORDINATES (ANGSTROEM)
---------------------------------
  C     -2.483525   14.629339    7.793773
  C     -3.920292   14.274481    7.745805
  O     -4.328701   14.659266    6.416248
  C     -5.644370   14.622996    5.953290
  O     -6.609878   14.341012    6.627287
  C     -5.912802   15.179561    4.598833
  C     -4.989807   15.427825    3.655996
  C     -3.447400   15.364464    3.790201
  N     -5.318856   15.999490    2.381861
  C     -6.477418   16.575468    2.188583
  S     -6.843022   17.461793    0.780052
  N     -7.398206   16.466802    3.185851
  C     -7.351738   15.327800    4.121720
  C     -7.943812   14.072966    3.471211
  C     -9.281748   13.955273    3.077420
  C     -9.798444   12.735777    2.673392
  C     -9.063137   11.571107    2.604609
  C     -7.719091   11.603887    3.018215
  O     -6.950999   10.480687    2.962386
  C     -7.162244   12.851273    3.422650
  H     -2.505593   15.723041    7.874471
  H     -1.889939   14.531949    6.876515
  H     -1.935803   14.276768    8.676317
  H     -4.092657   13.205630    7.921977
  H     -4.543952   14.786929    8.488529
  H     -2.867648   15.594564    2.887908
  H     -3.307689   14.316732    4.083347
  H     -3.061731   15.881338    4.677495
  H     -4.589327   16.143286    1.694055
  H     -8.260640   16.984275    3.065868
  H     -7.948838   15.624898    4.992579
  H     -9.865885   14.868433    3.143157
  H    -10.780037   12.708680    2.209563
  H     -9.485837   10.644861    2.226734
  H     -7.548863    9.857823    2.513689
  H     -6.124847   12.804673    3.740511

 Total Charge           Charge          ....    0
 Multiplicity           Mult            ....    1
 Number of Electrons    NEL             ....  154
 Basis Dimension        Dim             ....  828

ORBITAL ENERGIES
----------------

  NO   OCC          E(Eh)            E(eV)
   0   2.0000     -93.237485     -2537.1209
   1   2.0000     -21.922132      -596.5315
   2   2.0000     -21.907364      -596.1297
   3   2.0000     -21.889797      -595.6516
   4   2.0000     -16.953998      -461.3417
   5   2.0000     -16.926121      -460.5832
   6   2.0000     -12.736533      -346.5787
   7   2.0000     -12.714049      -345.9669
   8   2.0000     -12.653393      -344.3163
   9   2.0000     -12.626553      -343.5860
  10   2.0000     -12.625791      -343.5652
  11   2.0000     -12.602130      -342.9214
  12   2.0000     -12.579658      -342.3099
  13   2.0000     -12.577788      -342.2590
  14   2.0000     -12.557573      -341.7089
  15   2.0000     -12.556158      -341.6704
  16   2.0000     -12.553351      -341.5941
  17   2.0000     -12.549801      -341.4974
  18   2.0000     -12.548105      -341.4513
  19   2.0000     -12.523882      -340.7922
  20   2.0000     -10.242859      -278.7224
  21   2.0000      -7.924769      -215.6439
  22   2.0000      -7.922908      -215.5933
  23   2.0000      -7.922580      -215.5844
  24   2.0000      -2.776791       -75.5603
  25   2.0000      -2.725869       -74.1747
  26   2.0000      -2.693896       -73.3046
  27   2.0000      -2.677817       -72.8671
  28   2.0000      -2.556182       -69.5572
  29   2.0000      -2.470919       -67.2371
  30   2.0000      -2.444598       -66.5209
  31   2.0000      -2.360885       -64.2429
  32   2.0000      -2.349879       -63.9435
  33   2.0000      -2.321908       -63.1823
  34   2.0000      -2.308331       -62.8129
  35   2.0000      -2.304483       -62.7082
  36   2.0000      -2.238925       -60.9242
  37   2.0000      -2.200807       -59.8870
  38   2.0000      -2.172789       -59.1246
  39   2.0000      -2.154574       -58.6289
  40   2.0000      -2.140478       -58.2454
  41   2.0000      -2.133195       -58.0472
  42   2.0000      -2.084551       -56.7235
  43   2.0000      -2.058716       -56.0205
  44   2.0000      -2.040123       -55.5146
  45   2.0000      -2.017687       -54.9041
  46   2.0000      -2.009835       -54.6904
  47   2.0000      -2.003842       -54.5273
  48   2.0000      -1.990181       -54.1556
  49   2.0000      -1.980584       -53.8944
  50   2.0000      -1.972951       -53.6867
  51   2.0000      -1.960323       -53.3431
  52   2.0000      -1.948712       -53.0271
  53   2.0000      -1.919837       -52.2414
  54   2.0000      -1.910959       -51.9998
  55   2.0000      -1.908547       -51.9342
  56   2.0000      -1.903483       -51.7964
  57   2.0000      -1.896083       -51.5950
  58   2.0000      -1.890804       -51.4514
  59   2.0000      -1.881249       -51.1914
  60   2.0000      -1.873050       -50.9683
  61   2.0000      -1.865368       -50.7593
  62   2.0000      -1.853662       -50.4407
  63   2.0000      -1.839592       -50.0578
  64   2.0000      -1.835122       -49.9362
  65   2.0000      -1.824603       -49.6500
  66   2.0000      -1.818856       -49.4936
  67   2.0000      -1.809719       -49.2450
  68   2.0000      -1.795449       -48.8567
  69   2.0000      -1.793810       -48.8120
  70   2.0000      -1.766996       -48.0824
  71   2.0000      -1.763032       -47.9745
  72   2.0000      -1.695243       -46.1299
  73   2.0000      -1.681855       -45.7656
  74   2.0000      -1.669446       -45.4279
  75   2.0000      -1.657132       -45.0928
  76   2.0000      -1.634310       -44.4718
  77   0.0000      -1.247141       -33.9364
  78   0.0000      -1.207042       -32.8453
  79   0.0000      -1.184522       -32.2325
  80   0.0000      -1.168777       -31.8040
  81   0.0000      -1.165050       -31.7026

MULLIKEN ATOMIC CHARGES
-----------------------
   0 C :   -0.301080
   1 C :    0.049798
   2 O :   -0.332851
   3 C :    0.538816
   4 O :   -0.572960
   5 C :   -0.168292
   6 C :    0.149231
   7 C :   -0.284758
   8 N :   -0.119037
   9 C :    0.362699
  10 S :   -0.793968
  11 N :   -0.231205
  12 C :    0.065457
  13 C :   -0.016138
  14 C :   -0.202909
  15 C :   -0.161850
  16 C :   -0.270098
  17 C :    0.300208
  18 O :   -0.443630
  19 C :   -0.253596
  20 H :    0.100409
  21 H :    0.115155
  22 H :    0.120261
  23 H :    0.103417
  24 H :    0.107840
  25 H :    0.134249
  26 H :    0.126521
  27 H :    0.148321
  28 H :    0.269606
  29 H :    0.259361
  30 H :    0.159781
  31 H :    0.180669
  32 H :    0.183220
  33 H :    0.179800
  34 H :    0.327265
  35 H :    0.170288
Sum of atomic charges:   -0.0000000

LOEWDIN ATOMIC CHARGES
----------------------
   0 C :    0.096878
   1 C :   -0.021728
   2 O :    0.304166
   3 C :   -0.371365
   4 O :    0.020220
   5 C :   -0.093462
   6 C :   -0.005841
   7 C :    0.142328
   8 N :    0.444471
   9 C :   -0.419618
  10 S :   -0.304673
  11 N :    0.418873
  12 C :   -0.039550
  13 C :   -0.039112
  14 C :    0.003374
  15 C :    0.018752
  16 C :    0.010779
  17 C :   -0.187286
  18 O :    0.350216
  19 C :    0.022792
  20 H :   -0.016284
  21 H :   -0.018076
  22 H :   -0.014942
  23 H :   -0.024200
  24 H :   -0.019363
  25 H :   -0.012985
  26 H :   -0.009463
  27 H :   -0.008494
  28 H :   -0.009819
  29 H :   -0.036843
  30 H :    0.002155
  31 H :   -0.016315
  32 H :   -0.007092
  33 H :   -0.012362
  34 H :   -0.111010
  35 H :   -0.035123

  Mayer bond orders larger than 0.100000
B(  0-C ,  1-C ) :   0.9747 B(  0-C , 20-H ) :   0.9749 B(  0-C , 21-H ) :   0.9755
B(  0-C , 22-H ) :   0.9770 B(  1-C ,  2-O ) :   0.8760 B(  1-C , 23-H ) :   0.9763
B(  1-C , 24-H ) :   0.9748 B(  2-O ,  3-C ) :   1.2216 B(  3-C ,  4-O ) :   1.8985
B(  3-C ,  5-C ) :   1.0522 B(  5-C ,  6-C ) :   1.6389 B(  5-C , 12-C ) :   0.9861
B(  6-C ,  7-C ) :   0.9616 B(  6-C ,  8-N ) :   1.0998 B(  7-C , 25-H ) :   0.9851
B(  7-C , 26-H ) :   0.9574 B(  7-C , 27-H ) :   0.9547 B(  8-N ,  9-C ) :   1.3905
B(  8-N , 28-H ) :   0.9123 B(  9-C , 10-S ) :   1.1385 B(  9-C , 11-N ) :   1.3822
B( 11-N , 12-C ) :   0.9221 B( 11-N , 29-H ) :   0.9264 B( 12-C , 13-C ) :   1.0026
B( 12-C , 30-H ) :   0.9763 B( 13-C , 14-C ) :   1.3806 B( 13-C , 19-C ) :   1.3457
B( 14-C , 15-C ) :   1.3663 B( 14-C , 31-H ) :   0.9628 B( 15-C , 16-C ) :   1.3472
B( 15-C , 32-H ) :   0.9667 B( 16-C , 17-C ) :   1.3368 B( 16-C , 33-H ) :   0.9695
B( 17-C , 18-O ) :   1.1103 B( 17-C , 19-C ) :   1.3838 B( 18-O , 34-H ) :   0.9182
B( 19-C , 35-H ) :   0.9505

MP2 TOTAL ENERGY:    -1274.450168916 Eh
FINAL SINGLE POINT ENERGY     -1274.450168915999

DIPOLE MOMENT
-------------
                                X             Y             Z
Electronic contribution:    -10.79172       2.87647     -10.59555
Nuclear contribution   :     12.65683      -4.81612      12.41166
                        -----------------------------------------
Total Dipole Moment    :      1.86512      -1.93965       1.81610
                        -----------------------------------------
Magnitude (a.u.)       :      3.24641
Magnitude (Debye)      :      8.25171

Rotational constants in cm-1:     0.011151     0.008114     0.005601
Rotational constants in MHz :   334.313254   243.247669   167.899404

                             ****ORCA TERMINATED NORMALLY****
TOTAL RUN TIME: 0 days 1 hours 39 minutes 24 seconds 719 msec
