                         Program Version 5.0.0 -  RELEASE  -
|  1> ! RI-MP2 cc-pVTZ cc-pVTZ/c TightSCF KeepDens NoKeepInts
|  2>
|  3> *xyz  0  1
|  4>     C     0.3909917   19.3934664   -8.0012026
|  5>     C     1.8732592   19.8186723   -8.1491515
|  6>     O     2.7040227   19.5539232   -7.0303519
|  7>     C     2.8914408   18.3455677   -6.4073094
|  8>     O     2.4012378   17.3178365   -6.8585897
|  9>     C     3.6577103   18.4255507   -5.1711353
| 10>     C     3.7236663   17.3197992   -4.3435440
| 11>     C     3.0260292   15.9787075   -4.4904619
| 12>     N     4.3869211   17.4951421   -3.1097711
| 13>     C     5.0265737   18.5786919   -2.5932458
| 14>     S     5.7432793   18.5812106   -1.1120737
| 15>     N     4.9776716   19.6505979   -3.3995137
| 16>     C     4.3624456   19.7246381   -4.7145079
| 17>     C     5.3537007   20.1615973   -5.8241236
| 18>     C     5.0378915   21.3171899   -6.6081738
| 19>     C     5.9947158   21.8053523   -7.4958918
| 20>     C     7.1867234   21.0986715   -7.7063392
| 21>     C     7.4939096   19.9843665   -6.8876599
| 22>     O     8.6451593   19.3110869   -7.1997567
| 23>     C     6.5435201   19.4971325   -6.0006639
| 24>     H    -0.0886053   19.6638788   -7.0524924
| 25>     H     0.2445885   18.3297504   -8.2253989
| 26>     H    -0.2532314   19.8368996   -8.7703210
| 27>     H     2.2648575   19.3328023   -9.0512439
| 28>     H     1.9844801   20.9055160   -8.2470900
| 29>     H     3.2821592   15.2194253   -3.7414067
| 30>     H     3.2118777   15.5177976   -5.4683228
| 31>     H     1.9417491   16.0644993   -4.3484247
| 32>     H     4.6363865   16.7257479   -2.5000431
| 33>     H     5.4308150   20.4612344   -2.9951657
| 34>     H     3.5572548   20.4694671   -4.7051774
| 35>     H     4.1246023   21.8711368   -6.4121038
| 36>     H     5.7988216   22.6776598   -8.1124150
| 37>     H     7.9635085   21.4935792   -8.3544510
| 38>     H     8.7085593   18.4728513   -6.7097867
| 39>     H     6.6884196   18.6530809   -5.3328425
| 40> *
| 41>
| 42>                          ****END OF INPUT****

CARTESIAN COORDINATES (ANGSTROEM)
---------------------------------
  C      0.390992   19.393466   -8.001203
  C      1.873259   19.818672   -8.149152
  O      2.704023   19.553923   -7.030352
  C      2.891441   18.345568   -6.407309
  O      2.401238   17.317836   -6.858590
  C      3.657710   18.425551   -5.171135
  C      3.723666   17.319799   -4.343544
  C      3.026029   15.978707   -4.490462
  N      4.386921   17.495142   -3.109771
  C      5.026574   18.578692   -2.593246
  S      5.743279   18.581211   -1.112074
  N      4.977672   19.650598   -3.399514
  C      4.362446   19.724638   -4.714508
  C      5.353701   20.161597   -5.824124
  C      5.037891   21.317190   -6.608174
  C      5.994716   21.805352   -7.495892
  C      7.186723   21.098671   -7.706339
  C      7.493910   19.984367   -6.887660
  O      8.645159   19.311087   -7.199757
  C      6.543520   19.497132   -6.000664
  H     -0.088605   19.663879   -7.052492
  H      0.244588   18.329750   -8.225399
  H     -0.253231   19.836900   -8.770321
  H      2.264857   19.332802   -9.051244
  H      1.984480   20.905516   -8.247090
  H      3.282159   15.219425   -3.741407
  H      3.211878   15.517798   -5.468323
  H      1.941749   16.064499   -4.348425
  H      4.636386   16.725748   -2.500043
  H      5.430815   20.461234   -2.995166
  H      3.557255   20.469467   -4.705177
  H      4.124602   21.871137   -6.412104
  H      5.798822   22.677660   -8.112415
  H      7.963508   21.493579   -8.354451
  H      8.708559   18.472851   -6.709787
  H      6.688420   18.653081   -5.332842

 Total Charge           Charge          ....    0
 Multiplicity           Mult            ....    1
 Number of Electrons    NEL             ....  154
 Basis Dimension        Dim             ....  828

ORBITAL ENERGIES
----------------

  NO   OCC          E(Eh)            E(eV)
   0   2.0000     -91.896437     -2500.6292
   1   2.0000     -20.595822      -560.4408
   2   2.0000     -20.592576      -560.3525
   3   2.0000     -20.537444      -558.8523
   4   2.0000     -15.626671      -425.2233
   5   2.0000     -15.614290      -424.8864
   6   2.0000     -11.394164      -310.0510
   7   2.0000     -11.384132      -309.7780
   8   2.0000     -11.349219      -308.8280
   9   2.0000     -11.315549      -307.9117
  10   2.0000     -11.313468      -307.8551
  11   2.0000     -11.300874      -307.5124
  12   2.0000     -11.264779      -306.5302
  13   2.0000     -11.258361      -306.3556
  14   2.0000     -11.254703      -306.2561
  15   2.0000     -11.247419      -306.0578
  16   2.0000     -11.238192      -305.8067
  17   2.0000     -11.237434      -305.7861
  18   2.0000     -11.235750      -305.7403
  19   2.0000     -11.226212      -305.4808
  20   2.0000      -8.901785      -242.2299
  21   2.0000      -6.583427      -179.1442
  22   2.0000      -6.581302      -179.0863
  23   2.0000      -6.580757      -179.0715
  24   2.0000      -1.448422       -39.4136
  25   2.0000      -1.404155       -38.2090
  26   2.0000      -1.353533       -36.8315
  27   2.0000      -1.350420       -36.7468
  28   2.0000      -1.243901       -33.8483
  29   2.0000      -1.160386       -31.5757
  30   2.0000      -1.125208       -30.6185
  31   2.0000      -1.043654       -28.3993
  32   2.0000      -1.037902       -28.2427
  33   2.0000      -1.015978       -27.6462
  34   2.0000      -0.996132       -27.1061
  35   2.0000      -0.991205       -26.9721
  36   2.0000      -0.926443       -25.2098
  37   2.0000      -0.906653       -24.6713
  38   2.0000      -0.856980       -23.3196
  39   2.0000      -0.845739       -23.0137
  40   2.0000      -0.825250       -22.4562
  41   2.0000      -0.815923       -22.2024
  42   2.0000      -0.750664       -20.4266
  43   2.0000      -0.740616       -20.1532
  44   2.0000      -0.727019       -19.7832
  45   2.0000      -0.691119       -18.8063
  46   2.0000      -0.681998       -18.5581
  47   2.0000      -0.675348       -18.3772
  48   2.0000      -0.669766       -18.2253
  49   2.0000      -0.661340       -17.9960
  50   2.0000      -0.651811       -17.7367
  51   2.0000      -0.643834       -17.5196
  52   2.0000      -0.625280       -17.0147
  53   2.0000      -0.613237       -16.6870
  54   2.0000      -0.607840       -16.5402
  55   2.0000      -0.601209       -16.3597
  56   2.0000      -0.593866       -16.1599
  57   2.0000      -0.580964       -15.8088
  58   2.0000      -0.567590       -15.4449
  59   2.0000      -0.564353       -15.3568
  60   2.0000      -0.559533       -15.2257
  61   2.0000      -0.542894       -14.7729
  62   2.0000      -0.533857       -14.5270
  63   2.0000      -0.525834       -14.3087
  64   2.0000      -0.523025       -14.2322
  65   2.0000      -0.518866       -14.1191
  66   2.0000      -0.503492       -13.7007
  67   2.0000      -0.497763       -13.5448
  68   2.0000      -0.481313       -13.0972
  69   2.0000      -0.468534       -12.7495
  70   2.0000      -0.452761       -12.3202
  71   2.0000      -0.442705       -12.0466
  72   2.0000      -0.355176        -9.6648
  73   2.0000      -0.351589        -9.5672
  74   2.0000      -0.337853        -9.1935
  75   2.0000      -0.324508        -8.8303
  76   2.0000      -0.313368        -8.5272
  77   0.0000       0.067394         1.8339
  78   0.0000       0.113910         3.0996
  79   0.0000       0.121768         3.3135
  80   0.0000       0.131577         3.5804
  81   0.0000       0.136972         3.7272

MULLIKEN ATOMIC CHARGES
-----------------------
   0 C :   -0.310087
   1 C :    0.039860
   2 O :   -0.339871
   3 C :    0.446186
   4 O :   -0.446546
   5 C :   -0.183431
   6 C :    0.157953
   7 C :   -0.279916
   8 N :   -0.134403
   9 C :    0.196249
  10 S :   -0.436102
  11 N :   -0.179607
  12 C :    0.050590
  13 C :    0.004991
  14 C :   -0.182261
  15 C :   -0.121286
  16 C :   -0.217120
  17 C :    0.307948
  18 O :   -0.361281
  19 C :   -0.289434
  20 H :    0.096871
  21 H :    0.122514
  22 H :    0.099483
  23 H :    0.094933
  24 H :    0.100257
  25 H :    0.102894
  26 H :    0.144092
  27 H :    0.127861
  28 H :    0.189043
  29 H :    0.196291
  30 H :    0.146767
  31 H :    0.151909
  32 H :    0.158749
  33 H :    0.160015
  34 H :    0.242069
  35 H :    0.143819
Sum of atomic charges:    0.0000000

LOEWDIN ATOMIC CHARGES
----------------------
   0 C :    0.103886
   1 C :   -0.035252
   2 O :    0.321296
   3 C :   -0.422787
   4 O :    0.092023
   5 C :   -0.094537
   6 C :   -0.031145
   7 C :    0.126070
   8 N :    0.401107
   9 C :   -0.494441
  10 S :   -0.017108
  11 N :    0.408326
  12 C :   -0.042821
  13 C :   -0.035654
  14 C :    0.023046
  15 C :    0.029893
  16 C :    0.024738
  17 C :   -0.174598
  18 O :    0.380591
  19 C :   -0.003517
  20 H :   -0.030561
  21 H :   -0.022544
  22 H :   -0.025207
  23 H :   -0.026728
  24 H :   -0.027065
  25 H :   -0.021690
  26 H :   -0.006998
  27 H :   -0.003677
  28 H :   -0.062891
  29 H :   -0.057449
  30 H :   -0.014718
  31 H :   -0.032307
  32 H :   -0.022004
  33 H :   -0.025921
  34 H :   -0.152639
  35 H :   -0.026717

  Mayer bond orders larger than 0.100000
B(  0-C ,  1-C ) :   0.9669 B(  0-C , 20-H ) :   0.9753 B(  0-C , 21-H ) :   0.9735
B(  0-C , 22-H ) :   0.9750 B(  1-C ,  2-O ) :   0.9168 B(  1-C , 23-H ) :   0.9785
B(  1-C , 24-H ) :   0.9851 B(  2-O ,  3-C ) :   1.1764 B(  3-C ,  4-O ) :   1.9551
B(  3-C ,  5-C ) :   1.0592 B(  5-C ,  6-C ) :   1.6487 B(  5-C , 12-C ) :   0.9523
B(  6-C ,  7-C ) :   0.9733 B(  6-C ,  8-N ) :   1.1427 B(  7-C , 25-H ) :   0.9837
B(  7-C , 26-H ) :   0.9614 B(  7-C , 27-H ) :   0.9580 B(  8-N ,  9-C ) :   1.1827
B(  8-N , 28-H ) :   0.9476 B(  9-C , 10-S ) :   1.6162 B(  9-C , 11-N ) :   1.3085
B( 11-N , 12-C ) :   1.0189 B( 11-N , 29-H ) :   0.9493 B( 12-C , 13-C ) :   0.9387
B( 12-C , 30-H ) :   1.0027 B( 13-C , 14-C ) :   1.3580 B( 13-C , 19-C ) :   1.3763
B( 14-C , 15-C ) :   1.4057 B( 14-C , 31-H ) :   0.9700 B( 15-C , 16-C ) :   1.3580
B( 15-C , 32-H ) :   0.9719 B( 16-C , 17-C ) :   1.3560 B( 16-C , 33-H ) :   0.9707
B( 17-C , 18-O ) :   1.1038 B( 17-C , 19-C ) :   1.3525 B( 18-O , 34-H ) :   0.9785
B( 19-C , 35-H ) :   0.9610

MP2 TOTAL ENERGY:    -1274.323470307 Eh
FINAL SINGLE POINT ENERGY     -1274.323470306960

DIPOLE MOMENT
-------------
                                X             Y             Z
Electronic contribution:     12.46686      -0.08195      11.98243
Nuclear contribution   :    -13.36143       0.10986     -12.95721
                        -----------------------------------------
Total Dipole Moment    :     -0.89457       0.02791      -0.97478
                        -----------------------------------------
Magnitude (a.u.)       :      1.32334
Magnitude (Debye)      :      3.36366

Rotational constants in cm-1:     0.010481     0.008955     0.005780
Rotational constants in MHz :   314.222461   268.469078   173.292818

                             ****ORCA TERMINATED NORMALLY****
TOTAL RUN TIME: 0 days 2 hours 7 minutes 16 seconds 669 msec
