                         Program Version 5.0.0 -  RELEASE  -
|  1> ! RI-MP2 cc-pVTZ cc-pVTZ/c TightSCF KeepDens NoKeepInts
|  2>
|  3> %pointcharges "srfp_output"
|  4>
|  5> *xyz  0  1
|  6>     C     0.3909917   19.3934664   -8.0012026
|  7>     C     1.8732592   19.8186723   -8.1491515
|  8>     O     2.7040227   19.5539232   -7.0303519
|  9>     C     2.8914408   18.3455677   -6.4073094
| 10>     O     2.4012378   17.3178365   -6.8585897
| 11>     C     3.6577103   18.4255507   -5.1711353
| 12>     C     3.7236663   17.3197992   -4.3435440
| 13>     C     3.0260292   15.9787075   -4.4904619
| 14>     N     4.3869211   17.4951421   -3.1097711
| 15>     C     5.0265737   18.5786919   -2.5932458
| 16>     S     5.7432793   18.5812106   -1.1120737
| 17>     N     4.9776716   19.6505979   -3.3995137
| 18>     C     4.3624456   19.7246381   -4.7145079
| 19>     C     5.3537007   20.1615973   -5.8241236
| 20>     C     5.0378915   21.3171899   -6.6081738
| 21>     C     5.9947158   21.8053523   -7.4958918
| 22>     C     7.1867234   21.0986715   -7.7063392
| 23>     C     7.4939096   19.9843665   -6.8876599
| 24>     O     8.6451593   19.3110869   -7.1997567
| 25>     C     6.5435201   19.4971325   -6.0006639
| 26>     H    -0.0886053   19.6638788   -7.0524924
| 27>     H     0.2445885   18.3297504   -8.2253989
| 28>     H    -0.2532314   19.8368996   -8.7703210
| 29>     H     2.2648575   19.3328023   -9.0512439
| 30>     H     1.9844801   20.9055160   -8.2470900
| 31>     H     3.2821592   15.2194253   -3.7414067
| 32>     H     3.2118777   15.5177976   -5.4683228
| 33>     H     1.9417491   16.0644993   -4.3484247
| 34>     H     4.6363865   16.7257479   -2.5000431
| 35>     H     5.4308150   20.4612344   -2.9951657
| 36>     H     3.5572548   20.4694671   -4.7051774
| 37>     H     4.1246023   21.8711368   -6.4121038
| 38>     H     5.7988216   22.6776598   -8.1124150
| 39>     H     7.9635085   21.4935792   -8.3544510
| 40>     H     8.7085593   18.4728513   -6.7097867
| 41>     H     6.6884196   18.6530809   -5.3328425
| 42> *
| 43>
| 44>                          ****END OF INPUT****

CARTESIAN COORDINATES (ANGSTROEM)
---------------------------------
  C      0.390992   19.393466   -8.001203
  C      1.873259   19.818672   -8.149152
  O      2.704023   19.553923   -7.030352
  C      2.891441   18.345568   -6.407309
  O      2.401238   17.317836   -6.858590
  C      3.657710   18.425551   -5.171135
  C      3.723666   17.319799   -4.343544
  C      3.026029   15.978707   -4.490462
  N      4.386921   17.495142   -3.109771
  C      5.026574   18.578692   -2.593246
  S      5.743279   18.581211   -1.112074
  N      4.977672   19.650598   -3.399514
  C      4.362446   19.724638   -4.714508
  C      5.353701   20.161597   -5.824124
  C      5.037891   21.317190   -6.608174
  C      5.994716   21.805352   -7.495892
  C      7.186723   21.098671   -7.706339
  C      7.493910   19.984367   -6.887660
  O      8.645159   19.311087   -7.199757
  C      6.543520   19.497132   -6.000664
  H     -0.088605   19.663879   -7.052492
  H      0.244588   18.329750   -8.225399
  H     -0.253231   19.836900   -8.770321
  H      2.264857   19.332802   -9.051244
  H      1.984480   20.905516   -8.247090
  H      3.282159   15.219425   -3.741407
  H      3.211878   15.517798   -5.468323
  H      1.941749   16.064499   -4.348425
  H      4.636386   16.725748   -2.500043
  H      5.430815   20.461234   -2.995166
  H      3.557255   20.469467   -4.705177
  H      4.124602   21.871137   -6.412104
  H      5.798822   22.677660   -8.112415
  H      7.963508   21.493579   -8.354451
  H      8.708559   18.472851   -6.709787
  H      6.688420   18.653081   -5.332842

 Total Charge           Charge          ....    0
 Multiplicity           Mult            ....    1
 Number of Electrons    NEL             ....  154
 Basis Dimension        Dim             ....  828

ORBITAL ENERGIES
----------------

  NO   OCC          E(Eh)            E(eV)
   0   2.0000     -92.426408     -2515.0504
   1   2.0000     -21.121697      -574.7506
   2   2.0000     -21.111556      -574.4746
   3   2.0000     -21.075045      -573.4811
   4   2.0000     -16.139870      -439.1882
   5   2.0000     -16.130954      -438.9456
   6   2.0000     -11.929467      -324.6173
   7   2.0000     -11.910098      -324.0902
   8   2.0000     -11.868651      -322.9624
   9   2.0000     -11.837055      -322.1026
  10   2.0000     -11.831683      -321.9565
  11   2.0000     -11.813538      -321.4627
  12   2.0000     -11.781591      -320.5934
  13   2.0000     -11.779941      -320.5485
  14   2.0000     -11.768769      -320.2445
  15   2.0000     -11.762438      -320.0722
  16   2.0000     -11.760175      -320.0106
  17   2.0000     -11.759362      -319.9885
  18   2.0000     -11.757923      -319.9493
  19   2.0000     -11.737448      -319.3922
  20   2.0000      -9.432940      -256.6833
  21   2.0000      -7.114890      -193.6060
  22   2.0000      -7.112765      -193.5482
  23   2.0000      -7.112317      -193.5360
  24   2.0000      -1.978925       -53.8493
  25   2.0000      -1.925055       -52.3834
  26   2.0000      -1.886991       -51.3476
  27   2.0000      -1.868174       -50.8356
  28   2.0000      -1.758086       -47.8399
  29   2.0000      -1.683268       -45.8041
  30   2.0000      -1.645714       -44.7822
  31   2.0000      -1.563134       -42.5350
  32   2.0000      -1.555798       -42.3354
  33   2.0000      -1.536998       -41.8238
  34   2.0000      -1.515607       -41.2418
  35   2.0000      -1.511533       -41.1309
  36   2.0000      -1.445511       -39.3343
  37   2.0000      -1.424083       -38.7513
  38   2.0000      -1.374633       -37.4057
  39   2.0000      -1.366136       -37.1744
  40   2.0000      -1.341693       -36.5093
  41   2.0000      -1.336805       -36.3763
  42   2.0000      -1.271473       -34.5985
  43   2.0000      -1.259973       -34.2856
  44   2.0000      -1.249187       -33.9921
  45   2.0000      -1.214833       -33.0573
  46   2.0000      -1.207612       -32.8608
  47   2.0000      -1.195416       -32.5289
  48   2.0000      -1.188328       -32.3361
  49   2.0000      -1.183110       -32.1941
  50   2.0000      -1.168264       -31.7901
  51   2.0000      -1.163477       -31.6598
  52   2.0000      -1.145384       -31.1675
  53   2.0000      -1.132880       -30.8272
  54   2.0000      -1.126226       -30.6462
  55   2.0000      -1.119722       -30.4692
  56   2.0000      -1.114745       -30.3338
  57   2.0000      -1.101852       -29.9829
  58   2.0000      -1.089617       -29.6500
  59   2.0000      -1.080745       -29.4086
  60   2.0000      -1.073837       -29.2206
  61   2.0000      -1.061366       -28.8812
  62   2.0000      -1.056736       -28.7553
  63   2.0000      -1.054874       -28.7046
  64   2.0000      -1.042722       -28.3739
  65   2.0000      -1.035235       -28.1702
  66   2.0000      -1.023375       -27.8474
  67   2.0000      -1.018313       -27.7097
  68   2.0000      -1.004147       -27.3242
  69   2.0000      -0.985692       -26.8220
  70   2.0000      -0.979539       -26.6546
  71   2.0000      -0.973642       -26.4941
  72   2.0000      -0.879416       -23.9301
  73   2.0000      -0.875885       -23.8340
  74   2.0000      -0.871182       -23.7061
  75   2.0000      -0.852635       -23.2014
  76   2.0000      -0.839977       -22.8569
  77   0.0000      -0.456091       -12.4109
  78   0.0000      -0.408308       -11.1106
  79   0.0000      -0.387948       -10.5566
  80   0.0000      -0.377490       -10.2720
  81   0.0000      -0.363374        -9.8879

MULLIKEN ATOMIC CHARGES
-----------------------
   0 C :   -0.308137
   1 C :    0.021362
   2 O :   -0.334113
   3 C :    0.472406
   4 O :   -0.557566
   5 C :   -0.199411
   6 C :    0.187428
   7 C :   -0.284174
   8 N :   -0.147729
   9 C :    0.288271
  10 S :   -0.601869
  11 N :   -0.192415
  12 C :    0.069956
  13 C :   -0.015715
  14 C :   -0.205664
  15 C :   -0.124983
  16 C :   -0.280518
  17 C :    0.286146
  18 O :   -0.438373
  19 C :   -0.308874
  20 H :    0.108480
  21 H :    0.096468
  22 H :    0.119744
  23 H :    0.105197
  24 H :    0.125439
  25 H :    0.134522
  26 H :    0.135001
  27 H :    0.130008
  28 H :    0.247487
  29 H :    0.242637
  30 H :    0.167762
  31 H :    0.184819
  32 H :    0.195578
  33 H :    0.174636
  34 H :    0.323109
  35 H :    0.183085
Sum of atomic charges:    0.0000000

LOEWDIN ATOMIC CHARGES
----------------------
   0 C :    0.105084
   1 C :   -0.032665
   2 O :    0.325755
   3 C :   -0.412619
   4 O :    0.016817
   5 C :   -0.098644
   6 C :   -0.011331
   7 C :    0.132408
   8 N :    0.416061
   9 C :   -0.466332
  10 S :   -0.121625
  11 N :    0.423204
  12 C :   -0.034690
  13 C :   -0.043175
  14 C :    0.025354
  15 C :    0.026884
  16 C :    0.000927
  17 C :   -0.199159
  18 O :    0.349019
  19 C :   -0.002492
  20 H :   -0.027734
  21 H :   -0.030577
  22 H :   -0.016176
  23 H :   -0.025106
  24 H :   -0.018695
  25 H :   -0.007752
  26 H :   -0.010286
  27 H :   -0.003062
  28 H :   -0.034652
  29 H :   -0.034737
  30 H :   -0.006922
  31 H :   -0.020576
  32 H :   -0.011602
  33 H :   -0.024276
  34 H :   -0.112224
  35 H :   -0.014405

  Mayer bond orders larger than 0.100000
B(  0-C ,  1-C ) :   0.9631 B(  0-C , 20-H ) :   0.9715 B(  0-C , 21-H ) :   0.9778
B(  0-C , 22-H ) :   0.9722 B(  1-C ,  2-O ) :   0.8955 B(  1-C , 23-H ) :   0.9768
B(  1-C , 24-H ) :   0.9812 B(  2-O ,  3-C ) :   1.2100 B(  3-C ,  4-O ) :   1.8906
B(  3-C ,  5-C ) :   1.0961 B(  5-C ,  6-C ) :   1.6110 B(  5-C , 12-C ) :   0.9523
B(  6-C ,  7-C ) :   0.9622 B(  6-C ,  8-N ) :   1.1596 B(  7-C , 25-H ) :   0.9771
B(  7-C , 26-H ) :   0.9633 B(  7-C , 27-H ) :   0.9571 B(  8-N ,  9-C ) :   1.2355
B(  8-N , 28-H ) :   0.9254 B(  9-C , 10-S ) :   1.4408 B(  9-C , 11-N ) :   1.3742
B( 11-N , 12-C ) :   1.0192 B( 11-N , 29-H ) :   0.9270 B( 12-C , 13-C ) :   0.9300
B( 12-C , 30-H ) :   0.9990 B( 13-C , 14-C ) :   1.3357 B( 13-C , 19-C ) :   1.3277
B( 14-C , 15-C ) :   1.4118 B( 14-C , 31-H ) :   0.9611 B( 15-C , 16-C ) :   1.3398
B( 15-C , 32-H ) :   0.9598 B( 16-C , 17-C ) :   1.3397 B( 16-C , 33-H ) :   0.9653
B( 17-C , 18-O ) :   1.1171 B( 17-C , 19-C ) :   1.3582 B( 18-O , 34-H ) :   0.9158
B( 19-C , 35-H ) :   0.9585

MP2 TOTAL ENERGY:    -1274.418401668 Eh
FINAL SINGLE POINT ENERGY     -1274.418401667568

DIPOLE MOMENT
-------------
                                X             Y             Z
Electronic contribution:     12.13437       0.03320      12.05855
Nuclear contribution   :    -13.36143       0.10986     -12.95721
                        -----------------------------------------
Total Dipole Moment    :     -1.22705       0.14306      -0.89866
                        -----------------------------------------
Magnitude (a.u.)       :      1.52765
Magnitude (Debye)      :      3.88298

Rotational constants in cm-1:     0.010481     0.008955     0.005780
Rotational constants in MHz :   314.222461   268.469078   173.292818

                             ****ORCA TERMINATED NORMALLY****
TOTAL RUN TIME: 0 days 2 hours 9 minutes 57 seconds 9 msec
