                         Program Version 5.0.0 -  RELEASE  -
|  1> ! RI-MP2 cc-pVTZ cc-pVTZ/c TightSCF KeepDens NoKeepInts
|  2>
|  3> %pointcharges "srfp_output"
|  4>
|  5> *xyz  0  1
|  6>     C    16.6436530   -9.5814510   -0.8365118
|  7>     C    17.4758984  -10.6222675   -0.0929322
|  8>     O    16.6230464  -11.4814942    0.6261052
|  9>     C    16.0235215  -11.1081774    1.7359824
| 10>     O    16.0080225   -9.9179330    2.1587631
| 11>     C    15.1629785  -12.1100163    2.4234731
| 12>     C    14.8396632  -13.3770832    2.0289793
| 13>     C    15.3942554  -13.9991510    0.7373316
| 14>     N    14.0416277  -14.0984269    2.7729633
| 15>     C    13.3706618  -13.6791237    3.8655599
| 16>     S    11.9673991  -14.6298022    4.6003871
| 17>     N    13.5500932  -12.3810264    4.2387398
| 18>     C    14.5684976  -11.5837140    3.7169858
| 19>     C    15.5363876  -11.4725871    4.8974084
| 20>     C    15.4238979  -10.4746017    5.8566432
| 21>     C    16.3137428  -10.4711488    6.9324918
| 22>     C    17.3508831  -11.3665971    7.0609350
| 23>     C    17.4559063  -12.3377865    6.1165616
| 24>     O    18.5724354  -13.1597544    6.1859331
| 25>     C    16.5727175  -12.4241340    5.0615384
| 26>     H    16.7779524   -9.7128833   -1.9101891
| 27>     H    17.1169084   -8.6565469   -0.5068427
| 28>     H    15.5664683   -9.5907953   -0.6701014
| 29>     H    17.9977813  -11.1367423   -0.8998115
| 30>     H    18.2065573  -10.3365196    0.6637618
| 31>     H    15.1259190  -13.3586426   -0.1028140
| 32>     H    14.9454960  -14.9909346    0.6818010
| 33>     H    16.4796720  -13.9670685    0.8318941
| 34>     H    13.7286914  -14.9776011    2.3866687
| 35>     H    13.0427310  -12.1220702    5.0727813
| 36>     H    14.1555359  -10.5889704    3.5495106
| 37>     H    14.7642980   -9.6261542    5.7495687
| 38>     H    16.3759228   -9.6613045    7.6443106
| 39>     H    18.0813445  -11.1660145    7.8307355
| 40>     H    19.1877427  -12.9008447    6.8758338
| 41>     H    16.6702854  -13.2407911    4.3615667
| 42> *
| 43>
| 44>                          ****END OF INPUT****

CARTESIAN COORDINATES (ANGSTROEM)
---------------------------------
  C     16.643653   -9.581451   -0.836512
  C     17.475898  -10.622267   -0.092932
  O     16.623046  -11.481494    0.626105
  C     16.023522  -11.108177    1.735982
  O     16.008022   -9.917933    2.158763
  C     15.162978  -12.110016    2.423473
  C     14.839663  -13.377083    2.028979
  C     15.394255  -13.999151    0.737332
  N     14.041628  -14.098427    2.772963
  C     13.370662  -13.679124    3.865560
  S     11.967399  -14.629802    4.600387
  N     13.550093  -12.381026    4.238740
  C     14.568498  -11.583714    3.716986
  C     15.536388  -11.472587    4.897408
  C     15.423898  -10.474602    5.856643
  C     16.313743  -10.471149    6.932492
  C     17.350883  -11.366597    7.060935
  C     17.455906  -12.337786    6.116562
  O     18.572435  -13.159754    6.185933
  C     16.572717  -12.424134    5.061538
  H     16.777952   -9.712883   -1.910189
  H     17.116908   -8.656547   -0.506843
  H     15.566468   -9.590795   -0.670101
  H     17.997781  -11.136742   -0.899811
  H     18.206557  -10.336520    0.663762
  H     15.125919  -13.358643   -0.102814
  H     14.945496  -14.990935    0.681801
  H     16.479672  -13.967068    0.831894
  H     13.728691  -14.977601    2.386669
  H     13.042731  -12.122070    5.072781
  H     14.155536  -10.588970    3.549511
  H     14.764298   -9.626154    5.749569
  H     16.375923   -9.661304    7.644311
  H     18.081344  -11.166014    7.830736
  H     19.187743  -12.900845    6.875834
  H     16.670285  -13.240791    4.361567

 Total Charge           Charge          ....    0
 Multiplicity           Mult            ....    1
 Number of Electrons    NEL             ....  154
 Basis Dimension        Dim             ....  828

ORBITAL ENERGIES
----------------

  NO   OCC          E(Eh)            E(eV)
   0   2.0000     -93.014845     -2531.0626
   1   2.0000     -21.717487      -590.9629
   2   2.0000     -21.680971      -589.9692
   3   2.0000     -21.655312      -589.2710
   4   2.0000     -16.743731      -455.6201
   5   2.0000     -16.726221      -455.1436
   6   2.0000     -12.515728      -340.5703
   7   2.0000     -12.511718      -340.4612
   8   2.0000     -12.436738      -338.4208
   9   2.0000     -12.405254      -337.5641
  10   2.0000     -12.397120      -337.3428
  11   2.0000     -12.393116      -337.2338
  12   2.0000     -12.357892      -336.2753
  13   2.0000     -12.353306      -336.1506
  14   2.0000     -12.348632      -336.0234
  15   2.0000     -12.339274      -335.7687
  16   2.0000     -12.336231      -335.6859
  17   2.0000     -12.330392      -335.5270
  18   2.0000     -12.324822      -335.3755
  19   2.0000     -12.315350      -335.1177
  20   2.0000     -10.015607      -272.5385
  21   2.0000      -7.696975      -209.4453
  22   2.0000      -7.695154      -209.3958
  23   2.0000      -7.694846      -209.3874
  24   2.0000      -2.582437       -70.2717
  25   2.0000      -2.494403       -67.8762
  26   2.0000      -2.482277       -67.5462
  27   2.0000      -2.460610       -66.9566
  28   2.0000      -2.379775       -64.7570
  29   2.0000      -2.265409       -61.6449
  30   2.0000      -2.226157       -60.5768
  31   2.0000      -2.153808       -58.6081
  32   2.0000      -2.141903       -58.2841
  33   2.0000      -2.117136       -57.6102
  34   2.0000      -2.103126       -57.2290
  35   2.0000      -2.076126       -56.4943
  36   2.0000      -2.025362       -55.1129
  37   2.0000      -2.008243       -54.6471
  38   2.0000      -1.970251       -53.6133
  39   2.0000      -1.940068       -52.7919
  40   2.0000      -1.935758       -52.6747
  41   2.0000      -1.924643       -52.3722
  42   2.0000      -1.869145       -50.8620
  43   2.0000      -1.854605       -50.4664
  44   2.0000      -1.836210       -49.9658
  45   2.0000      -1.804963       -49.1155
  46   2.0000      -1.802499       -49.0485
  47   2.0000      -1.790420       -48.7198
  48   2.0000      -1.786943       -48.6252
  49   2.0000      -1.778031       -48.3827
  50   2.0000      -1.758704       -47.8568
  51   2.0000      -1.746117       -47.5143
  52   2.0000      -1.733888       -47.1815
  53   2.0000      -1.718449       -46.7614
  54   2.0000      -1.708164       -46.4815
  55   2.0000      -1.701166       -46.2911
  56   2.0000      -1.695516       -46.1373
  57   2.0000      -1.689371       -45.9701
  58   2.0000      -1.671739       -45.4903
  59   2.0000      -1.668581       -45.4044
  60   2.0000      -1.664129       -45.2832
  61   2.0000      -1.654687       -45.0263
  62   2.0000      -1.634710       -44.4827
  63   2.0000      -1.627463       -44.2855
  64   2.0000      -1.617001       -44.0008
  65   2.0000      -1.609425       -43.7947
  66   2.0000      -1.595836       -43.4249
  67   2.0000      -1.591010       -43.2936
  68   2.0000      -1.582117       -43.0516
  69   2.0000      -1.574758       -42.8513
  70   2.0000      -1.561975       -42.5035
  71   2.0000      -1.557738       -42.3882
  72   2.0000      -1.454856       -39.5887
  73   2.0000      -1.448599       -39.4184
  74   2.0000      -1.441513       -39.2256
  75   2.0000      -1.432161       -38.9711
  76   2.0000      -1.427941       -38.8563
  77   0.0000      -1.042026       -28.3550
  78   0.0000      -0.986660       -26.8484
  79   0.0000      -0.964200       -26.2372
  80   0.0000      -0.960724       -26.1426
  81   0.0000      -0.950377       -25.8611

MULLIKEN ATOMIC CHARGES
-----------------------
   0 C :   -0.287118
   1 C :    0.015727
   2 O :   -0.276249
   3 C :    0.498887
   4 O :   -0.623925
   5 C :   -0.251497
   6 C :    0.118236
   7 C :   -0.243591
   8 N :   -0.058602
   9 C :    0.280037
  10 S :   -0.658136
  11 N :   -0.159915
  12 C :    0.081603
  13 C :    0.033889
  14 C :   -0.220814
  15 C :   -0.115011
  16 C :   -0.303119
  17 C :    0.271988
  18 O :   -0.453663
  19 C :   -0.296137
  20 H :    0.105130
  21 H :    0.108491
  22 H :    0.110264
  23 H :    0.126023
  24 H :    0.111411
  25 H :    0.132907
  26 H :    0.121514
  27 H :    0.131960
  28 H :    0.247266
  29 H :    0.249249
  30 H :    0.158351
  31 H :    0.182470
  32 H :    0.180006
  33 H :    0.184469
  34 H :    0.315075
  35 H :    0.182822
Sum of atomic charges:    0.0000000

LOEWDIN ATOMIC CHARGES
----------------------
   0 C :    0.115911
   1 C :   -0.023727
   2 O :    0.388019
   3 C :   -0.396713
   4 O :   -0.061578
   5 C :   -0.097588
   6 C :   -0.081149
   7 C :    0.166036
   8 N :    0.447729
   9 C :   -0.257402
  10 S :   -0.342303
  11 N :    0.447148
  12 C :   -0.091836
  13 C :   -0.036005
  14 C :    0.021536
  15 C :    0.048560
  16 C :   -0.001186
  17 C :   -0.203387
  18 O :    0.346740
  19 C :    0.009341
  20 H :   -0.024257
  21 H :   -0.022429
  22 H :   -0.025743
  23 H :   -0.016424
  24 H :   -0.027647
  25 H :   -0.009593
  26 H :   -0.016042
  27 H :   -0.009636
  28 H :   -0.006441
  29 H :   -0.023716
  30 H :   -0.006458
  31 H :   -0.018378
  32 H :   -0.012015
  33 H :   -0.011896
  34 H :   -0.137994
  35 H :   -0.029476

  Mayer bond orders larger than 0.100000
B(  0-C ,  1-C ) :   0.9241 B(  0-C , 20-H ) :   0.9860 B(  0-C , 21-H ) :   0.9781
B(  0-C , 22-H ) :   0.9758 B(  1-C ,  2-O ) :   0.8639 B(  1-C , 23-H ) :   0.9874
B(  1-C , 24-H ) :   0.9876 B(  2-O ,  3-C ) :   1.2833 B(  3-C ,  4-O ) :   1.8136
B(  3-C ,  5-C ) :   1.0995 B(  5-C ,  6-C ) :   1.5435 B(  5-C , 12-C ) :   0.9985
B(  6-C ,  7-C ) :   0.9550 B(  6-C ,  8-N ) :   1.2573 B(  7-C , 25-H ) :   0.9630
B(  7-C , 26-H ) :   0.9794 B(  7-C , 27-H ) :   0.9626 B(  8-N ,  9-C ) :   1.2406
B(  8-N , 28-H ) :   0.9215 B(  9-C , 10-S ) :   1.1951 B(  9-C , 11-N ) :   1.4491
B( 11-N , 12-C ) :   0.9423 B( 11-N , 29-H ) :   0.9264 B( 12-C , 13-C ) :   0.9374
B( 12-C , 30-H ) :   0.9983 B( 13-C , 14-C ) :   1.4026 B( 13-C , 19-C ) :   1.3266
B( 14-C , 15-C ) :   1.3464 B( 14-C , 31-H ) :   0.9588 B( 15-C , 16-C ) :   1.3528
B( 15-C , 32-H ) :   0.9712 B( 16-C , 17-C ) :   1.3194 B( 16-C , 33-H ) :   0.9688
B( 17-C , 18-O ) :   1.1042 B( 17-C , 19-C ) :   1.3984 B( 18-O , 34-H ) :   0.9201
B( 19-C , 35-H ) :   0.9470

MP2 TOTAL ENERGY:    -1274.392105562 Eh
FINAL SINGLE POINT ENERGY     -1274.392105562198

DIPOLE MOMENT
-------------
                                X             Y             Z
Electronic contribution:     -7.96077      -7.70377      11.85266
Nuclear contribution   :     10.45362       8.21334     -13.73041
                        -----------------------------------------
Total Dipole Moment    :      2.49285       0.50957      -1.87775
                        -----------------------------------------
Magnitude (a.u.)       :      3.16226
Magnitude (Debye)      :      8.03783

Rotational constants in cm-1:     0.010568     0.008583     0.005822
Rotational constants in MHz :   316.807157   257.319530   174.530766

                             ****ORCA TERMINATED NORMALLY****
TOTAL RUN TIME: 0 days 1 hours 23 minutes 57 seconds 298 msec
