                         Program Version 5.0.0 -  RELEASE  -
|  1> ! RI-MP2 cc-pVTZ cc-pVTZ/c TightSCF KeepDens NoKeepInts
|  2>
|  3> %pointcharges "srfp_output"
|  4>
|  5> *xyz  0  1
|  6>     C     0.2660751   -8.0352195   16.8042944
|  7>     C     1.2963724   -7.2821573   15.8642926
|  8>     O     2.5990539   -7.7718745   16.1324631
|  9>     C     3.3442546   -7.5733298   17.2386543
| 10>     O     3.1111479   -6.6879770   18.0691868
| 11>     C     4.6385926   -8.2749332   17.1971412
| 12>     C     4.9126432   -9.3395948   16.4221078
| 13>     C     4.0833257   -9.9264276   15.3408197
| 14>     N     6.1022138  -10.0805369   16.5207596
| 15>     C     6.9088123   -9.9201732   17.6255915
| 16>     S     8.0882450  -10.9805832   17.9913011
| 17>     N     6.5163810   -9.0466550   18.5817939
| 18>     C     5.5869607   -7.9146145   18.3404253
| 19>     C     6.5234060   -6.7098005   17.9782864
| 20>     C     7.3279439   -6.6371344   16.8019718
| 21>     C     8.1869172   -5.5719171   16.5499207
| 22>     C     8.3741390   -4.5433210   17.5325748
| 23>     C     7.5527866   -4.5738920   18.6679508
| 24>     O     7.7869270   -3.6047436   19.5786418
| 25>     C     6.5823957   -5.5799975   18.8950590
| 26>     H     0.4428698   -7.7926782   17.8593346
| 27>     H     0.2711910   -9.1308651   16.7520991
| 28>     H    -0.7773335   -7.7868387   16.5745222
| 29>     H     0.9780573   -7.4834022   14.8340664
| 30>     H     1.1924545   -6.1980583   15.9951357
| 31>     H     3.9128486   -9.2251275   14.5148048
| 32>     H     3.1203273  -10.3413110   15.6628373
| 33>     H     4.6378995  -10.7495353   14.8737652
| 34>     H     6.4959059  -10.6732595   15.7998900
| 35>     H     7.0295397   -9.0719788   19.4547162
| 36>     H     5.0167946   -7.7946199   19.2697807
| 37>     H     7.3451006   -7.4580664   16.0912170
| 38>     H     8.8011832   -5.6136734   15.6553092
| 39>     H     9.1226128   -3.7756376   17.3598178
| 40>     H     7.2778040   -3.8460565   20.3719204
| 41>     H     5.9151016   -5.6262047   19.7506170
| 42> *
| 43>
| 44>                          ****END OF INPUT****

CARTESIAN COORDINATES (ANGSTROEM)
---------------------------------
  C      0.266075   -8.035220   16.804294
  C      1.296372   -7.282157   15.864293
  O      2.599054   -7.771875   16.132463
  C      3.344255   -7.573330   17.238654
  O      3.111148   -6.687977   18.069187
  C      4.638593   -8.274933   17.197141
  C      4.912643   -9.339595   16.422108
  C      4.083326   -9.926428   15.340820
  N      6.102214  -10.080537   16.520760
  C      6.908812   -9.920173   17.625591
  S      8.088245  -10.980583   17.991301
  N      6.516381   -9.046655   18.581794
  C      5.586961   -7.914614   18.340425
  C      6.523406   -6.709801   17.978286
  C      7.327944   -6.637134   16.801972
  C      8.186917   -5.571917   16.549921
  C      8.374139   -4.543321   17.532575
  C      7.552787   -4.573892   18.667951
  O      7.786927   -3.604744   19.578642
  C      6.582396   -5.579997   18.895059
  H      0.442870   -7.792678   17.859335
  H      0.271191   -9.130865   16.752099
  H     -0.777334   -7.786839   16.574522
  H      0.978057   -7.483402   14.834066
  H      1.192454   -6.198058   15.995136
  H      3.912849   -9.225127   14.514805
  H      3.120327  -10.341311   15.662837
  H      4.637899  -10.749535   14.873765
  H      6.495906  -10.673260   15.799890
  H      7.029540   -9.071979   19.454716
  H      5.016795   -7.794620   19.269781
  H      7.345101   -7.458066   16.091217
  H      8.801183   -5.613673   15.655309
  H      9.122613   -3.775638   17.359818
  H      7.277804   -3.846056   20.371920
  H      5.915102   -5.626205   19.750617

 Total Charge           Charge          ....    0
 Multiplicity           Mult            ....    1
 Number of Electrons    NEL             ....  154
 Basis Dimension        Dim             ....  828

ORBITAL ENERGIES
----------------

  NO   OCC          E(Eh)            E(eV)
   0   2.0000     -93.630642     -2547.8193
   1   2.0000     -22.312292      -607.1483
   2   2.0000     -22.294523      -606.6648
   3   2.0000     -22.269722      -605.9899
   4   2.0000     -17.340424      -471.8569
   5   2.0000     -17.323742      -471.4030
   6   2.0000     -13.122282      -357.0754
   7   2.0000     -13.108341      -356.6961
   8   2.0000     -13.041361      -354.8735
   9   2.0000     -13.020952      -354.3181
  10   2.0000     -13.019615      -354.2817
  11   2.0000     -12.999877      -353.7446
  12   2.0000     -12.978667      -353.1675
  13   2.0000     -12.963358      -352.7509
  14   2.0000     -12.956984      -352.5774
  15   2.0000     -12.951864      -352.4381
  16   2.0000     -12.944237      -352.2306
  17   2.0000     -12.943012      -352.1973
  18   2.0000     -12.936067      -352.0083
  19   2.0000     -12.918374      -351.5268
  20   2.0000     -10.638928      -289.5000
  21   2.0000      -8.321102      -226.4287
  22   2.0000      -8.318934      -226.3697
  23   2.0000      -8.318536      -226.3589
  24   2.0000      -3.170367       -86.2701
  25   2.0000      -3.118425       -84.8567
  26   2.0000      -3.077008       -83.7297
  27   2.0000      -3.056651       -83.1757
  28   2.0000      -2.951702       -80.3199
  29   2.0000      -2.856586       -77.7317
  30   2.0000      -2.833235       -77.0963
  31   2.0000      -2.746951       -74.7483
  32   2.0000      -2.735571       -74.4387
  33   2.0000      -2.712321       -73.8060
  34   2.0000      -2.708769       -73.7094
  35   2.0000      -2.699932       -73.4689
  36   2.0000      -2.631787       -71.6146
  37   2.0000      -2.604418       -70.8698
  38   2.0000      -2.554323       -69.5067
  39   2.0000      -2.551609       -69.4328
  40   2.0000      -2.533175       -68.9312
  41   2.0000      -2.512622       -68.3719
  42   2.0000      -2.467683       -67.1491
  43   2.0000      -2.448477       -66.6265
  44   2.0000      -2.435212       -66.2655
  45   2.0000      -2.412260       -65.6409
  46   2.0000      -2.400526       -65.3216
  47   2.0000      -2.388329       -64.9897
  48   2.0000      -2.375344       -64.6364
  49   2.0000      -2.367882       -64.4333
  50   2.0000      -2.361086       -64.2484
  51   2.0000      -2.350376       -63.9570
  52   2.0000      -2.338183       -63.6252
  53   2.0000      -2.320130       -63.1340
  54   2.0000      -2.308371       -62.8140
  55   2.0000      -2.305990       -62.7492
  56   2.0000      -2.295280       -62.4577
  57   2.0000      -2.279731       -62.0346
  58   2.0000      -2.275402       -61.9168
  59   2.0000      -2.267573       -61.7038
  60   2.0000      -2.261473       -61.5378
  61   2.0000      -2.250022       -61.2262
  62   2.0000      -2.241362       -60.9906
  63   2.0000      -2.230160       -60.6857
  64   2.0000      -2.222709       -60.4830
  65   2.0000      -2.218809       -60.3769
  66   2.0000      -2.208668       -60.1009
  67   2.0000      -2.197841       -59.8063
  68   2.0000      -2.185646       -59.4745
  69   2.0000      -2.175280       -59.1924
  70   2.0000      -2.166070       -58.9418
  71   2.0000      -2.160098       -58.7793
  72   2.0000      -2.082774       -56.6751
  73   2.0000      -2.080461       -56.6122
  74   2.0000      -2.060765       -56.0763
  75   2.0000      -2.042415       -55.5769
  76   2.0000      -2.023990       -55.0756
  77   0.0000      -1.644038       -44.7365
  78   0.0000      -1.595477       -43.4151
  79   0.0000      -1.578639       -42.9569
  80   0.0000      -1.565140       -42.5896
  81   0.0000      -1.555934       -42.3391

MULLIKEN ATOMIC CHARGES
-----------------------
   0 C :   -0.314703
   1 C :    0.018178
   2 O :   -0.304177
   3 C :    0.510523
   4 O :   -0.609189
   5 C :   -0.171410
   6 C :    0.218727
   7 C :   -0.305798
   8 N :   -0.158010
   9 C :    0.356584
  10 S :   -0.764660
  11 N :   -0.195119
  12 C :    0.067102
  13 C :    0.003322
  14 C :   -0.299589
  15 C :   -0.151301
  16 C :   -0.280601
  17 C :    0.322227
  18 O :   -0.445599
  19 C :   -0.262903
  20 H :    0.099677
  21 H :    0.107917
  22 H :    0.114482
  23 H :    0.134008
  24 H :    0.115318
  25 H :    0.137712
  26 H :    0.139592
  27 H :    0.116533
  28 H :    0.272714
  29 H :    0.255723
  30 H :    0.176761
  31 H :    0.193847
  32 H :    0.198962
  33 H :    0.187183
  34 H :    0.325559
  35 H :    0.190411
Sum of atomic charges:    0.0000000

LOEWDIN ATOMIC CHARGES
----------------------
   0 C :    0.111091
   1 C :   -0.014492
   2 O :    0.361203
   3 C :   -0.390493
   4 O :   -0.031166
   5 C :   -0.095220
   6 C :   -0.042351
   7 C :    0.126481
   8 N :    0.432033
   9 C :   -0.451540
  10 S :   -0.210813
  11 N :    0.425153
  12 C :   -0.017406
  13 C :   -0.020218
  14 C :   -0.017942
  15 C :    0.035114
  16 C :    0.008704
  17 C :   -0.213313
  18 O :    0.359924
  19 C :    0.026596
  20 H :   -0.033418
  21 H :   -0.028818
  22 H :   -0.022616
  23 H :   -0.015745
  24 H :   -0.027129
  25 H :   -0.001433
  26 H :   -0.002256
  27 H :   -0.007657
  28 H :   -0.020666
  29 H :   -0.033122
  30 H :    0.000758
  31 H :   -0.025194
  32 H :   -0.010677
  33 H :   -0.022757
  34 H :   -0.108798
  35 H :   -0.021819

  Mayer bond orders larger than 0.100000
B(  0-C ,  1-C ) :   0.9586 B(  0-C , 20-H ) :   0.9771 B(  0-C , 21-H ) :   0.9735
B(  0-C , 22-H ) :   0.9736 B(  1-C ,  2-O ) :   0.8907 B(  1-C , 23-H ) :   0.9791
B(  1-C , 24-H ) :   0.9782 B(  2-O ,  3-C ) :   1.2244 B(  3-C ,  4-O ) :   1.8413
B(  3-C ,  5-C ) :   1.1057 B(  5-C ,  6-C ) :   1.6285 B(  5-C , 12-C ) :   0.9759
B(  6-C ,  7-C ) :   0.9435 B(  6-C ,  8-N ) :   1.1325 B(  7-C , 25-H ) :   0.9581
B(  7-C , 26-H ) :   0.9598 B(  7-C , 27-H ) :   0.9954 B(  8-N ,  9-C ) :   1.2654
B(  8-N , 28-H ) :   0.9104 B(  9-C , 10-S ) :   1.2408 B(  9-C , 11-N ) :   1.4277
B( 11-N , 12-C ) :   0.9341 B( 11-N , 29-H ) :   0.9252 B( 12-C , 13-C ) :   0.9773
B( 12-C , 30-H ) :   0.9786 B( 13-C , 14-C ) :   1.3365 B( 13-C , 19-C ) :   1.3302
B( 14-C , 15-C ) :   1.4163 B( 14-C , 31-H ) :   0.9581 B( 15-C , 16-C ) :   1.3520
B( 15-C , 32-H ) :   0.9619 B( 16-C , 17-C ) :   1.3513 B( 16-C , 33-H ) :   0.9575
B( 17-C , 18-O ) :   1.0921 B( 17-C , 19-C ) :   1.3503 B( 18-O , 34-H ) :   0.9183
B( 19-C , 35-H ) :   0.9607

MP2 TOTAL ENERGY:    -1274.451730398 Eh
FINAL SINGLE POINT ENERGY     -1274.451730398464

DIPOLE MOMENT
-------------
                                X             Y             Z
Electronic contribution:     14.53459      -0.97910       6.09687
Nuclear contribution   :    -17.45961       1.00523      -7.75790
                        -----------------------------------------
Total Dipole Moment    :     -2.92502       0.02613      -1.66103
                        -----------------------------------------
Magnitude (a.u.)       :      3.36384
Magnitude (Debye)      :      8.55020

Rotational constants in cm-1:     0.011232     0.007939     0.005325
Rotational constants in MHz :   336.728308   238.002809   159.639800

                             ****ORCA TERMINATED NORMALLY****
TOTAL RUN TIME: 0 days 1 hours 55 minutes 17 seconds 279 msec
