                         Program Version 5.0.0 -  RELEASE  -
|  1> ! RI-MP2 cc-pVTZ cc-pVTZ/c TightSCF KeepDens NoKeepInts
|  2>
|  3> *xyz  0  1
|  4>     C     0.2660751   -8.0352195   16.8042944
|  5>     C     1.2963724   -7.2821573   15.8642926
|  6>     O     2.5990539   -7.7718745   16.1324631
|  7>     C     3.3442546   -7.5733298   17.2386543
|  8>     O     3.1111479   -6.6879770   18.0691868
|  9>     C     4.6385926   -8.2749332   17.1971412
| 10>     C     4.9126432   -9.3395948   16.4221078
| 11>     C     4.0833257   -9.9264276   15.3408197
| 12>     N     6.1022138  -10.0805369   16.5207596
| 13>     C     6.9088123   -9.9201732   17.6255915
| 14>     S     8.0882450  -10.9805832   17.9913011
| 15>     N     6.5163810   -9.0466550   18.5817939
| 16>     C     5.5869607   -7.9146145   18.3404253
| 17>     C     6.5234060   -6.7098005   17.9782864
| 18>     C     7.3279439   -6.6371344   16.8019718
| 19>     C     8.1869172   -5.5719171   16.5499207
| 20>     C     8.3741390   -4.5433210   17.5325748
| 21>     C     7.5527866   -4.5738920   18.6679508
| 22>     O     7.7869270   -3.6047436   19.5786418
| 23>     C     6.5823957   -5.5799975   18.8950590
| 24>     H     0.4428698   -7.7926782   17.8593346
| 25>     H     0.2711910   -9.1308651   16.7520991
| 26>     H    -0.7773335   -7.7868387   16.5745222
| 27>     H     0.9780573   -7.4834022   14.8340664
| 28>     H     1.1924545   -6.1980583   15.9951357
| 29>     H     3.9128486   -9.2251275   14.5148048
| 30>     H     3.1203273  -10.3413110   15.6628373
| 31>     H     4.6378995  -10.7495353   14.8737652
| 32>     H     6.4959059  -10.6732595   15.7998900
| 33>     H     7.0295397   -9.0719788   19.4547162
| 34>     H     5.0167946   -7.7946199   19.2697807
| 35>     H     7.3451006   -7.4580664   16.0912170
| 36>     H     8.8011832   -5.6136734   15.6553092
| 37>     H     9.1226128   -3.7756376   17.3598178
| 38>     H     7.2778040   -3.8460565   20.3719204
| 39>     H     5.9151016   -5.6262047   19.7506170
| 40> *
| 41>
| 42>                          ****END OF INPUT****

CARTESIAN COORDINATES (ANGSTROEM)
---------------------------------
  C      0.266075   -8.035220   16.804294
  C      1.296372   -7.282157   15.864293
  O      2.599054   -7.771875   16.132463
  C      3.344255   -7.573330   17.238654
  O      3.111148   -6.687977   18.069187
  C      4.638593   -8.274933   17.197141
  C      4.912643   -9.339595   16.422108
  C      4.083326   -9.926428   15.340820
  N      6.102214  -10.080537   16.520760
  C      6.908812   -9.920173   17.625591
  S      8.088245  -10.980583   17.991301
  N      6.516381   -9.046655   18.581794
  C      5.586961   -7.914614   18.340425
  C      6.523406   -6.709801   17.978286
  C      7.327944   -6.637134   16.801972
  C      8.186917   -5.571917   16.549921
  C      8.374139   -4.543321   17.532575
  C      7.552787   -4.573892   18.667951
  O      7.786927   -3.604744   19.578642
  C      6.582396   -5.579997   18.895059
  H      0.442870   -7.792678   17.859335
  H      0.271191   -9.130865   16.752099
  H     -0.777334   -7.786839   16.574522
  H      0.978057   -7.483402   14.834066
  H      1.192454   -6.198058   15.995136
  H      3.912849   -9.225127   14.514805
  H      3.120327  -10.341311   15.662837
  H      4.637899  -10.749535   14.873765
  H      6.495906  -10.673260   15.799890
  H      7.029540   -9.071979   19.454716
  H      5.016795   -7.794620   19.269781
  H      7.345101   -7.458066   16.091217
  H      8.801183   -5.613673   15.655309
  H      9.122613   -3.775638   17.359818
  H      7.277804   -3.846056   20.371920
  H      5.915102   -5.626205   19.750617

 Total Charge           Charge          ....    0
 Multiplicity           Mult            ....    1
 Number of Electrons    NEL             ....  154
 Basis Dimension        Dim             ....  828

ORBITAL ENERGIES
----------------

  NO   OCC          E(Eh)            E(eV)
   0   2.0000     -91.884640     -2500.3082
   1   2.0000     -20.608806      -560.7941
   2   2.0000     -20.588977      -560.2546
   3   2.0000     -20.545454      -559.0702
   4   2.0000     -15.632145      -425.3723
   5   2.0000     -15.604051      -424.6078
   6   2.0000     -11.400360      -310.2196
   7   2.0000     -11.376002      -309.5568
   8   2.0000     -11.336882      -308.4922
   9   2.0000     -11.312871      -307.8389
  10   2.0000     -11.312390      -307.8258
  11   2.0000     -11.309483      -307.7467
  12   2.0000     -11.268928      -306.6431
  13   2.0000     -11.259576      -306.3886
  14   2.0000     -11.254975      -306.2634
  15   2.0000     -11.248291      -306.0815
  16   2.0000     -11.243690      -305.9564
  17   2.0000     -11.234633      -305.7099
  18   2.0000     -11.233157      -305.6697
  19   2.0000     -11.232910      -305.6630
  20   2.0000      -8.891117      -241.9396
  21   2.0000      -6.572795      -178.8548
  22   2.0000      -6.570696      -178.7977
  23   2.0000      -6.570074      -178.7808
  24   2.0000      -1.461144       -39.7597
  25   2.0000      -1.411421       -38.4067
  26   2.0000      -1.356130       -36.9022
  27   2.0000      -1.343206       -36.5505
  28   2.0000      -1.240883       -33.7662
  29   2.0000      -1.144943       -31.1555
  30   2.0000      -1.123257       -30.5654
  31   2.0000      -1.042198       -28.3597
  32   2.0000      -1.034758       -28.1572
  33   2.0000      -1.005481       -27.3605
  34   2.0000      -0.998536       -27.1715
  35   2.0000      -0.987389       -26.8682
  36   2.0000      -0.922080       -25.0911
  37   2.0000      -0.909082       -24.7374
  38   2.0000      -0.845608       -23.0102
  39   2.0000      -0.841748       -22.9051
  40   2.0000      -0.829130       -22.5618
  41   2.0000      -0.804193       -21.8832
  42   2.0000      -0.761242       -20.7144
  43   2.0000      -0.739940       -20.1348
  44   2.0000      -0.727762       -19.8034
  45   2.0000      -0.705027       -19.1848
  46   2.0000      -0.689048       -18.7500
  47   2.0000      -0.678865       -18.4729
  48   2.0000      -0.665905       -18.1202
  49   2.0000      -0.664418       -18.0797
  50   2.0000      -0.647935       -17.6312
  51   2.0000      -0.645131       -17.5549
  52   2.0000      -0.632714       -17.2170
  53   2.0000      -0.614668       -16.7260
  54   2.0000      -0.607714       -16.5368
  55   2.0000      -0.595389       -16.2013
  56   2.0000      -0.593506       -16.1501
  57   2.0000      -0.581353       -15.8194
  58   2.0000      -0.567486       -15.4421
  59   2.0000      -0.562953       -15.3187
  60   2.0000      -0.556618       -15.1463
  61   2.0000      -0.544644       -14.8205
  62   2.0000      -0.538402       -14.6507
  63   2.0000      -0.534654       -14.5487
  64   2.0000      -0.515625       -14.0309
  65   2.0000      -0.506355       -13.7786
  66   2.0000      -0.498933       -13.5767
  67   2.0000      -0.495661       -13.4876
  68   2.0000      -0.474572       -12.9138
  69   2.0000      -0.460148       -12.5213
  70   2.0000      -0.457883       -12.4596
  71   2.0000      -0.451374       -12.2825
  72   2.0000      -0.363613        -9.8944
  73   2.0000      -0.337802        -9.1921
  74   2.0000      -0.326060        -8.8725
  75   2.0000      -0.321550        -8.7498
  76   2.0000      -0.306509        -8.3405
  77   0.0000       0.072818         1.9815
  78   0.0000       0.114560         3.1173
  79   0.0000       0.115162         3.1337
  80   0.0000       0.129836         3.5330
  81   0.0000       0.136511         3.7147

MULLIKEN ATOMIC CHARGES
-----------------------
   0 C :   -0.317542
   1 C :    0.025594
   2 O :   -0.323156
   3 C :    0.436310
   4 O :   -0.447967
   5 C :   -0.160846
   6 C :    0.188342
   7 C :   -0.309020
   8 N :   -0.141311
   9 C :    0.185563
  10 S :   -0.443946
  11 N :   -0.177817
  12 C :    0.037214
  13 C :    0.037814
  14 C :   -0.228888
  15 C :   -0.116509
  16 C :   -0.235318
  17 C :    0.319493
  18 O :   -0.352037
  19 C :   -0.278220
  20 H :    0.115164
  21 H :    0.095979
  22 H :    0.100980
  23 H :    0.109197
  24 H :    0.115153
  25 H :    0.127654
  26 H :    0.127088
  27 H :    0.097946
  28 H :    0.206735
  29 H :    0.191309
  30 H :    0.159975
  31 H :    0.146546
  32 H :    0.156981
  33 H :    0.167007
  34 H :    0.239120
  35 H :    0.145413
Sum of atomic charges:    0.0000000

LOEWDIN ATOMIC CHARGES
----------------------
   0 C :    0.107637
   1 C :   -0.020416
   2 O :    0.345815
   3 C :   -0.418987
   4 O :    0.071595
   5 C :   -0.095529
   6 C :   -0.068847
   7 C :    0.113679
   8 N :    0.408568
   9 C :   -0.492930
  10 S :   -0.009671
  11 N :    0.397941
  12 C :   -0.026412
  13 C :   -0.005483
  14 C :   -0.003128
  15 C :    0.046267
  16 C :    0.022818
  17 C :   -0.204645
  18 O :    0.394791
  19 C :    0.013080
  20 H :   -0.027909
  21 H :   -0.033963
  22 H :   -0.028792
  23 H :   -0.025812
  24 H :   -0.026425
  25 H :   -0.008595
  26 H :   -0.008878
  27 H :   -0.018820
  28 H :   -0.053944
  29 H :   -0.063573
  30 H :   -0.006527
  31 H :   -0.035362
  32 H :   -0.022417
  33 H :   -0.027945
  34 H :   -0.149846
  35 H :   -0.037334

  Mayer bond orders larger than 0.100000
B(  0-C ,  1-C ) :   0.9622 B(  0-C , 20-H ) :   0.9746 B(  0-C , 21-H ) :   0.9755
B(  0-C , 22-H ) :   0.9762 B(  1-C ,  2-O ) :   0.9132 B(  1-C , 23-H ) :   0.9830
B(  1-C , 24-H ) :   0.9770 B(  2-O ,  3-C ) :   1.1668 B(  3-C ,  4-O ) :   1.9474
B(  3-C ,  5-C ) :   1.0711 B(  5-C ,  6-C ) :   1.6463 B(  5-C , 12-C ) :   0.9820
B(  6-C ,  7-C ) :   0.9445 B(  6-C ,  8-N ) :   1.1341 B(  7-C , 25-H ) :   0.9632
B(  7-C , 26-H ) :   0.9662 B(  7-C , 27-H ) :   0.9997 B(  8-N ,  9-C ) :   1.1593
B(  8-N , 28-H ) :   0.9405 B(  9-C , 10-S ) :   1.6374 B(  9-C , 11-N ) :   1.3114
B( 11-N , 12-C ) :   0.9501 B( 11-N , 29-H ) :   0.9541 B( 12-C , 13-C ) :   0.9792
B( 12-C , 30-H ) :   0.9824 B( 13-C , 14-C ) :   1.3712 B( 13-C , 19-C ) :   1.3540
B( 14-C , 15-C ) :   1.4172 B( 14-C , 31-H ) :   0.9685 B( 15-C , 16-C ) :   1.3576
B( 15-C , 32-H ) :   0.9756 B( 16-C , 17-C ) :   1.3707 B( 16-C , 33-H ) :   0.9643
B( 17-C , 18-O ) :   1.0939 B( 17-C , 19-C ) :   1.3300 B( 18-O , 34-H ) :   0.9826
B( 19-C , 35-H ) :   0.9727

MP2 TOTAL ENERGY:    -1274.309766154 Eh
FINAL SINGLE POINT ENERGY     -1274.309766154270

DIPOLE MOMENT
-------------
                                X             Y             Z
Electronic contribution:     15.59643      -1.05817       6.73787
Nuclear contribution   :    -17.45961       1.00523      -7.75790
                        -----------------------------------------
Total Dipole Moment    :     -1.86318      -0.05294      -1.02003
                        -----------------------------------------
Magnitude (a.u.)       :      2.12478
Magnitude (Debye)      :      5.40076

Rotational constants in cm-1:     0.011232     0.007939     0.005325
Rotational constants in MHz :   336.728308   238.002809   159.639800

                             ****ORCA TERMINATED NORMALLY****
TOTAL RUN TIME: 0 days 1 hours 54 minutes 38 seconds 461 msec
