                         Program Version 5.0.0 -  RELEASE  -
|  1> ! RI-MP2 cc-pVTZ cc-pVTZ/c TightSCF KeepDens NoKeepInts
|  2>
|  3> %pointcharges "srfp_output"
|  4>
|  5> *xyz  0  1
|  6>     C    11.4242034   -6.4516510   14.3743139
|  7>     C    10.2907837   -7.0869763   13.5832620
|  8>     O     9.1683305   -7.3972934   14.4866431
|  9>     C     8.9722406   -8.6278381   14.9975180
| 10>     O     9.8165643   -9.4760177   14.8726025
| 11>     C     7.6670003   -8.7938099   15.7653491
| 12>     C     6.6983960   -7.8604653   15.9714343
| 13>     C     6.6091931   -6.5375872   15.3021898
| 14>     N     5.7033652   -8.0664396   16.7716790
| 15>     C     5.6124770   -9.1331895   17.6347858
| 16>     S     4.5678174   -9.1062996   18.8706698
| 17>     N     6.4678683  -10.1496671   17.4504633
| 18>     C     7.4537922  -10.1898299   16.3868424
| 19>     C     7.0329099  -11.1197384   15.2631231
| 20>     C     7.3768050  -12.4358540   15.4719517
| 21>     C     6.8742862  -13.4255367   14.5591641
| 22>     C     6.1529993  -13.0186484   13.3920896
| 23>     C     5.8261782  -11.6768702   13.1819614
| 24>     O     5.0713188  -11.2592364   12.1264585
| 25>     C     6.2640094  -10.7082080   14.1376148
| 26>     H    12.2597716   -6.1285633   13.7413600
| 27>     H    11.7677637   -7.2053241   15.0934333
| 28>     H    11.0590565   -5.6417317   15.0176609
| 29>     H     9.9223222   -6.2919476   12.9234472
| 30>     H    10.6818260   -7.9067454   12.9682383
| 31>     H     5.6246115   -6.0664784   15.4110227
| 32>     H     6.6256998   -6.7482431   14.2258343
| 33>     H     7.4063150   -5.8529916   15.6170056
| 34>     H     4.9746829   -7.3833185   16.9400060
| 35>     H     6.4880589  -10.9372867   18.0870276
| 36>     H     8.3373269  -10.6121460   16.8810135
| 37>     H     8.0147187  -12.7050237   16.3086176
| 38>     H     6.9956935  -14.4821970   14.7785389
| 39>     H     5.8341068  -13.7764056   12.6825068
| 40>     H     5.4216669  -10.4003173   11.8327861
| 41>     H     6.0010155   -9.6642403   13.9949184
| 42> *
| 43>
| 44>                          ****END OF INPUT****

CARTESIAN COORDINATES (ANGSTROEM)
---------------------------------
  C     11.424203   -6.451651   14.374314
  C     10.290784   -7.086976   13.583262
  O      9.168330   -7.397293   14.486643
  C      8.972241   -8.627838   14.997518
  O      9.816564   -9.476018   14.872602
  C      7.667000   -8.793810   15.765349
  C      6.698396   -7.860465   15.971434
  C      6.609193   -6.537587   15.302190
  N      5.703365   -8.066440   16.771679
  C      5.612477   -9.133190   17.634786
  S      4.567817   -9.106300   18.870670
  N      6.467868  -10.149667   17.450463
  C      7.453792  -10.189830   16.386842
  C      7.032910  -11.119738   15.263123
  C      7.376805  -12.435854   15.471952
  C      6.874286  -13.425537   14.559164
  C      6.152999  -13.018648   13.392090
  C      5.826178  -11.676870   13.181961
  O      5.071319  -11.259236   12.126459
  C      6.264009  -10.708208   14.137615
  H     12.259772   -6.128563   13.741360
  H     11.767764   -7.205324   15.093433
  H     11.059057   -5.641732   15.017661
  H      9.922322   -6.291948   12.923447
  H     10.681826   -7.906745   12.968238
  H      5.624612   -6.066478   15.411023
  H      6.625700   -6.748243   14.225834
  H      7.406315   -5.852992   15.617006
  H      4.974683   -7.383318   16.940006
  H      6.488059  -10.937287   18.087028
  H      8.337327  -10.612146   16.881014
  H      8.014719  -12.705024   16.308618
  H      6.995693  -14.482197   14.778539
  H      5.834107  -13.776406   12.682507
  H      5.421667  -10.400317   11.832786
  H      6.001016   -9.664240   13.994918

 Total Charge           Charge          ....    0
 Multiplicity           Mult            ....    1
 Number of Electrons    NEL             ....  154
 Basis Dimension        Dim             ....  828

ORBITAL ENERGIES
----------------

  NO   OCC          E(Eh)            E(eV)
   0   2.0000     -91.761130     -2496.9473
   1   2.0000     -20.432701      -556.0021
   2   2.0000     -20.423515      -555.7521
   3   2.0000     -20.391363      -554.8772
   4   2.0000     -15.467850      -420.9016
   5   2.0000     -15.459244      -420.6674
   6   2.0000     -11.240042      -305.8571
   7   2.0000     -11.239246      -305.8354
   8   2.0000     -11.157335      -303.6065
   9   2.0000     -11.149028      -303.3805
  10   2.0000     -11.134871      -302.9952
  11   2.0000     -11.122841      -302.6679
  12   2.0000     -11.091187      -301.8065
  13   2.0000     -11.087164      -301.6971
  14   2.0000     -11.081953      -301.5553
  15   2.0000     -11.077858      -301.4438
  16   2.0000     -11.076490      -301.4066
  17   2.0000     -11.071160      -301.2616
  18   2.0000     -11.066416      -301.1325
  19   2.0000     -11.045503      -300.5634
  20   2.0000      -8.769632      -238.6338
  21   2.0000      -6.451820      -175.5629
  22   2.0000      -6.449578      -175.5019
  23   2.0000      -6.449148      -175.4902
  24   2.0000      -1.299119       -35.3508
  25   2.0000      -1.240467       -33.7548
  26   2.0000      -1.211521       -32.9672
  27   2.0000      -1.199133       -32.6301
  28   2.0000      -1.105117       -30.0718
  29   2.0000      -0.993289       -27.0288
  30   2.0000      -0.957106       -26.0442
  31   2.0000      -0.878105       -23.8945
  32   2.0000      -0.872719       -23.7479
  33   2.0000      -0.847450       -23.0603
  34   2.0000      -0.839541       -22.8451
  35   2.0000      -0.826542       -22.4914
  36   2.0000      -0.762775       -20.7562
  37   2.0000      -0.720910       -19.6170
  38   2.0000      -0.702083       -19.1047
  39   2.0000      -0.679582       -18.4924
  40   2.0000      -0.658072       -17.9071
  41   2.0000      -0.640379       -17.4256
  42   2.0000      -0.599357       -16.3093
  43   2.0000      -0.584252       -15.8983
  44   2.0000      -0.566739       -15.4218
  45   2.0000      -0.536347       -14.5947
  46   2.0000      -0.532812       -14.4986
  47   2.0000      -0.521850       -14.2003
  48   2.0000      -0.506709       -13.7883
  49   2.0000      -0.496948       -13.5226
  50   2.0000      -0.492294       -13.3960
  51   2.0000      -0.477572       -12.9954
  52   2.0000      -0.465134       -12.6569
  53   2.0000      -0.458269       -12.4701
  54   2.0000      -0.441650       -12.0179
  55   2.0000      -0.438480       -11.9316
  56   2.0000      -0.425300       -11.5730
  57   2.0000      -0.409505       -11.1432
  58   2.0000      -0.403012       -10.9665
  59   2.0000      -0.399931       -10.8827
  60   2.0000      -0.386903       -10.5282
  61   2.0000      -0.379905       -10.3377
  62   2.0000      -0.369082       -10.0432
  63   2.0000      -0.365014        -9.9325
  64   2.0000      -0.354017        -9.6333
  65   2.0000      -0.344418        -9.3721
  66   2.0000      -0.334217        -9.0945
  67   2.0000      -0.324573        -8.8321
  68   2.0000      -0.317907        -8.6507
  69   2.0000      -0.305822        -8.3218
  70   2.0000      -0.300481        -8.1765
  71   2.0000      -0.287819        -7.8320
  72   2.0000      -0.211962        -5.7678
  73   2.0000      -0.210843        -5.7373
  74   2.0000      -0.181709        -4.9445
  75   2.0000      -0.163775        -4.4566
  76   2.0000      -0.158888        -4.3236
  77   0.0000       0.234763         6.3882
  78   0.0000       0.269014         7.3202
  79   0.0000       0.296792         8.0761
  80   0.0000       0.310895         8.4599
  81   0.0000       0.322762         8.7828

MULLIKEN ATOMIC CHARGES
-----------------------
   0 C :   -0.284011
   1 C :    0.040765
   2 O :   -0.338173
   3 C :    0.530743
   4 O :   -0.580671
   5 C :   -0.275298
   6 C :    0.131901
   7 C :   -0.288424
   8 N :   -0.068073
   9 C :    0.353903
  10 S :   -0.719296
  11 N :   -0.192818
  12 C :    0.065470
  13 C :    0.032198
  14 C :   -0.227851
  15 C :   -0.160561
  16 C :   -0.259159
  17 C :    0.272879
  18 O :   -0.452427
  19 C :   -0.293661
  20 H :    0.117166
  21 H :    0.089713
  22 H :    0.101103
  23 H :    0.117864
  24 H :    0.117751
  25 H :    0.124296
  26 H :    0.121710
  27 H :    0.141035
  28 H :    0.257678
  29 H :    0.258835
  30 H :    0.165284
  31 H :    0.186806
  32 H :    0.200151
  33 H :    0.184377
  34 H :    0.335341
  35 H :    0.193453
Sum of atomic charges:   -0.0000000

LOEWDIN ATOMIC CHARGES
----------------------
   0 C :    0.105387
   1 C :    0.016279
   2 O :    0.314631
   3 C :   -0.442620
   4 O :    0.015074
   5 C :   -0.088939
   6 C :   -0.125733
   7 C :    0.140629
   8 N :    0.457524
   9 C :   -0.444996
  10 S :   -0.173040
  11 N :    0.443233
  12 C :   -0.051996
  13 C :   -0.066162
  14 C :    0.012062
  15 C :    0.056717
  16 C :    0.007032
  17 C :   -0.199821
  18 O :    0.346509
  19 C :    0.026974
  20 H :   -0.017787
  21 H :   -0.028580
  22 H :   -0.024217
  23 H :   -0.020299
  24 H :   -0.025413
  25 H :   -0.006838
  26 H :   -0.003133
  27 H :   -0.004123
  28 H :   -0.006910
  29 H :   -0.022193
  30 H :    0.001104
  31 H :   -0.015971
  32 H :   -0.017675
  33 H :   -0.021994
  34 H :   -0.108408
  35 H :   -0.026307

  Mayer bond orders larger than 0.100000
B(  0-C ,  1-C ) :   0.9641 B(  0-C , 20-H ) :   0.9713 B(  0-C , 21-H ) :   0.9784
B(  0-C , 22-H ) :   0.9772 B(  1-C ,  2-O ) :   0.8586 B(  1-C , 23-H ) :   0.9837
B(  1-C , 24-H ) :   0.9739 B(  2-O ,  3-C ) :   1.2240 B(  3-C ,  4-O ) :   1.8970
B(  3-C ,  5-C ) :   1.1010 B(  5-C ,  6-C ) :   1.5685 B(  5-C , 12-C ) :   0.9758
B(  6-C ,  7-C ) :   0.9487 B(  6-C ,  8-N ) :   1.2609 B(  7-C , 25-H ) :   0.9881
B(  7-C , 26-H ) :   0.9636 B(  7-C , 27-H ) :   0.9611 B(  8-N ,  9-C ) :   1.2024
B(  8-N , 28-H ) :   0.9199 B(  9-C , 10-S ) :   1.2814 B(  9-C , 11-N ) :   1.4611
B( 11-N , 12-C ) :   0.9306 B( 11-N , 29-H ) :   0.9183 B( 12-C , 13-C ) :   0.9400
B( 12-C , 30-H ) :   1.0035 B( 13-C , 14-C ) :   1.3699 B( 13-C , 19-C ) :   1.2893
B( 14-C , 15-C ) :   1.3669 B( 14-C , 31-H ) :   0.9587 B( 15-C , 16-C ) :   1.3800
B( 15-C , 32-H ) :   0.9584 B( 16-C , 17-C ) :   1.3582 B( 16-C , 33-H ) :   0.9551
B( 17-C , 18-O ) :   1.0915 B( 17-C , 19-C ) :   1.3729 B( 18-O , 34-H ) :   0.9064
B( 19-C , 35-H ) :   0.9534

MP2 TOTAL ENERGY:    -1274.445195420 Eh
FINAL SINGLE POINT ENERGY     -1274.445195420261

DIPOLE MOMENT
-------------
                                X             Y             Z
Electronic contribution:    -11.42941      -7.85682       7.56851
Nuclear contribution   :     12.71680      10.03199      -9.78594
                        -----------------------------------------
Total Dipole Moment    :      1.28739       2.17517      -2.21742
                        -----------------------------------------
Magnitude (a.u.)       :      3.36240
Magnitude (Debye)      :      8.54653

Rotational constants in cm-1:     0.010380     0.008646     0.005874
Rotational constants in MHz :   311.179499   259.189556   176.090759

                             ****ORCA TERMINATED NORMALLY****
TOTAL RUN TIME: 0 days 2 hours 3 minutes 39 seconds 820 msec
