                         Program Version 5.0.0 -  RELEASE  -
|  1> ! RI-MP2 cc-pVTZ cc-pVTZ/c TightSCF KeepDens NoKeepInts
|  2>
|  3> *xyz  0  1
|  4>     C    11.4242034   -6.4516510   14.3743139
|  5>     C    10.2907837   -7.0869763   13.5832620
|  6>     O     9.1683305   -7.3972934   14.4866431
|  7>     C     8.9722406   -8.6278381   14.9975180
|  8>     O     9.8165643   -9.4760177   14.8726025
|  9>     C     7.6670003   -8.7938099   15.7653491
| 10>     C     6.6983960   -7.8604653   15.9714343
| 11>     C     6.6091931   -6.5375872   15.3021898
| 12>     N     5.7033652   -8.0664396   16.7716790
| 13>     C     5.6124770   -9.1331895   17.6347858
| 14>     S     4.5678174   -9.1062996   18.8706698
| 15>     N     6.4678683  -10.1496671   17.4504633
| 16>     C     7.4537922  -10.1898299   16.3868424
| 17>     C     7.0329099  -11.1197384   15.2631231
| 18>     C     7.3768050  -12.4358540   15.4719517
| 19>     C     6.8742862  -13.4255367   14.5591641
| 20>     C     6.1529993  -13.0186484   13.3920896
| 21>     C     5.8261782  -11.6768702   13.1819614
| 22>     O     5.0713188  -11.2592364   12.1264585
| 23>     C     6.2640094  -10.7082080   14.1376148
| 24>     H    12.2597716   -6.1285633   13.7413600
| 25>     H    11.7677637   -7.2053241   15.0934333
| 26>     H    11.0590565   -5.6417317   15.0176609
| 27>     H     9.9223222   -6.2919476   12.9234472
| 28>     H    10.6818260   -7.9067454   12.9682383
| 29>     H     5.6246115   -6.0664784   15.4110227
| 30>     H     6.6256998   -6.7482431   14.2258343
| 31>     H     7.4063150   -5.8529916   15.6170056
| 32>     H     4.9746829   -7.3833185   16.9400060
| 33>     H     6.4880589  -10.9372867   18.0870276
| 34>     H     8.3373269  -10.6121460   16.8810135
| 35>     H     8.0147187  -12.7050237   16.3086176
| 36>     H     6.9956935  -14.4821970   14.7785389
| 37>     H     5.8341068  -13.7764056   12.6825068
| 38>     H     5.4216669  -10.4003173   11.8327861
| 39>     H     6.0010155   -9.6642403   13.9949184
| 40> *
| 41>
| 42>                          ****END OF INPUT****

CARTESIAN COORDINATES (ANGSTROEM)
---------------------------------
  C     11.424203   -6.451651   14.374314
  C     10.290784   -7.086976   13.583262
  O      9.168330   -7.397293   14.486643
  C      8.972241   -8.627838   14.997518
  O      9.816564   -9.476018   14.872602
  C      7.667000   -8.793810   15.765349
  C      6.698396   -7.860465   15.971434
  C      6.609193   -6.537587   15.302190
  N      5.703365   -8.066440   16.771679
  C      5.612477   -9.133190   17.634786
  S      4.567817   -9.106300   18.870670
  N      6.467868  -10.149667   17.450463
  C      7.453792  -10.189830   16.386842
  C      7.032910  -11.119738   15.263123
  C      7.376805  -12.435854   15.471952
  C      6.874286  -13.425537   14.559164
  C      6.152999  -13.018648   13.392090
  C      5.826178  -11.676870   13.181961
  O      5.071319  -11.259236   12.126459
  C      6.264009  -10.708208   14.137615
  H     12.259772   -6.128563   13.741360
  H     11.767764   -7.205324   15.093433
  H     11.059057   -5.641732   15.017661
  H      9.922322   -6.291948   12.923447
  H     10.681826   -7.906745   12.968238
  H      5.624612   -6.066478   15.411023
  H      6.625700   -6.748243   14.225834
  H      7.406315   -5.852992   15.617006
  H      4.974683   -7.383318   16.940006
  H      6.488059  -10.937287   18.087028
  H      8.337327  -10.612146   16.881014
  H      8.014719  -12.705024   16.308618
  H      6.995693  -14.482197   14.778539
  H      5.834107  -13.776406   12.682507
  H      5.421667  -10.400317   11.832786
  H      6.001016   -9.664240   13.994918

 Total Charge           Charge          ....    0
 Multiplicity           Mult            ....    1
 Number of Electrons    NEL             ....  154
 Basis Dimension        Dim             ....  828

ORBITAL ENERGIES
----------------

  NO   OCC          E(Eh)            E(eV)
   0   2.0000     -91.890595     -2500.4702
   1   2.0000     -20.598059      -560.5017
   2   2.0000     -20.593047      -560.3653
   3   2.0000     -20.534675      -558.7769
   4   2.0000     -15.631824      -425.3635
   5   2.0000     -15.611287      -424.8047
   6   2.0000     -11.386837      -309.8516
   7   2.0000     -11.380669      -309.6837
   8   2.0000     -11.325060      -308.1706
   9   2.0000     -11.312644      -307.8327
  10   2.0000     -11.302206      -307.5487
  11   2.0000     -11.298196      -307.4396
  12   2.0000     -11.256678      -306.3098
  13   2.0000     -11.255541      -306.2788
  14   2.0000     -11.250258      -306.1351
  15   2.0000     -11.247703      -306.0656
  16   2.0000     -11.241836      -305.9059
  17   2.0000     -11.238928      -305.8268
  18   2.0000     -11.234701      -305.7118
  19   2.0000     -11.227508      -305.5160
  20   2.0000      -8.897295      -242.1077
  21   2.0000      -6.579017      -179.0242
  22   2.0000      -6.576867      -178.9656
  23   2.0000      -6.576229      -178.9483
  24   2.0000      -1.453752       -39.5586
  25   2.0000      -1.408273       -38.3211
  26   2.0000      -1.371871       -37.3305
  27   2.0000      -1.350808       -36.7574
  28   2.0000      -1.264949       -34.4210
  29   2.0000      -1.153316       -31.3833
  30   2.0000      -1.118031       -30.4232
  31   2.0000      -1.047288       -28.4982
  32   2.0000      -1.041402       -28.3380
  33   2.0000      -1.006503       -27.3883
  34   2.0000      -0.999996       -27.2113
  35   2.0000      -0.994571       -27.0637
  36   2.0000      -0.925237       -25.1770
  37   2.0000      -0.890012       -24.2185
  38   2.0000      -0.862637       -23.4735
  39   2.0000      -0.844642       -22.9839
  40   2.0000      -0.825581       -22.4652
  41   2.0000      -0.804244       -21.8846
  42   2.0000      -0.760924       -20.7058
  43   2.0000      -0.747121       -20.3302
  44   2.0000      -0.732842       -19.9417
  45   2.0000      -0.701451       -19.0875
  46   2.0000      -0.693273       -18.8649
  47   2.0000      -0.676609       -18.4115
  48   2.0000      -0.668702       -18.1963
  49   2.0000      -0.660183       -17.9645
  50   2.0000      -0.657313       -17.8864
  51   2.0000      -0.639329       -17.3970
  52   2.0000      -0.631426       -17.1820
  53   2.0000      -0.627245       -17.0682
  54   2.0000      -0.611498       -16.6397
  55   2.0000      -0.606847       -16.5131
  56   2.0000      -0.594338       -16.1728
  57   2.0000      -0.580167       -15.7871
  58   2.0000      -0.571481       -15.5508
  59   2.0000      -0.564608       -15.3638
  60   2.0000      -0.557686       -15.1754
  61   2.0000      -0.536162       -14.5897
  62   2.0000      -0.534395       -14.5416
  63   2.0000      -0.529209       -14.4005
  64   2.0000      -0.519664       -14.1408
  65   2.0000      -0.510551       -13.8928
  66   2.0000      -0.500096       -13.6083
  67   2.0000      -0.497461       -13.5366
  68   2.0000      -0.477312       -12.9883
  69   2.0000      -0.463325       -12.6077
  70   2.0000      -0.454465       -12.3666
  71   2.0000      -0.448086       -12.1930
  72   2.0000      -0.351186        -9.5563
  73   2.0000      -0.342526        -9.3206
  74   2.0000      -0.331356        -9.0166
  75   2.0000      -0.321717        -8.7544
  76   2.0000      -0.314497        -8.5579
  77   0.0000       0.083592         2.2747
  78   0.0000       0.101519         2.7625
  79   0.0000       0.114161         3.1065
  80   0.0000       0.130449         3.5497
  81   0.0000       0.137386         3.7385

MULLIKEN ATOMIC CHARGES
-----------------------
   0 C :   -0.281739
   1 C :    0.038655
   2 O :   -0.357146
   3 C :    0.477290
   4 O :   -0.433328
   5 C :   -0.287931
   6 C :    0.111772
   7 C :   -0.291569
   8 N :   -0.049883
   9 C :    0.205149
  10 S :   -0.430160
  11 N :   -0.173238
  12 C :    0.025878
  13 C :    0.145149
  14 C :   -0.226617
  15 C :   -0.117275
  16 C :   -0.238425
  17 C :    0.289444
  18 O :   -0.363856
  19 C :   -0.308557
  20 H :    0.101204
  21 H :    0.104396
  22 H :    0.092434
  23 H :    0.096197
  24 H :    0.118904
  25 H :    0.099683
  26 H :    0.111418
  27 H :    0.137637
  28 H :    0.193071
  29 H :    0.198005
  30 H :    0.147158
  31 H :    0.148211
  32 H :    0.162619
  33 H :    0.161877
  34 H :    0.244937
  35 H :    0.148638
Sum of atomic charges:   -0.0000000

LOEWDIN ATOMIC CHARGES
----------------------
   0 C :    0.102685
   1 C :    0.010500
   2 O :    0.299081
   3 C :   -0.466534
   4 O :    0.109473
   5 C :   -0.092911
   6 C :   -0.148871
   7 C :    0.129241
   8 N :    0.438876
   9 C :   -0.481918
  10 S :    0.010693
  11 N :    0.418526
  12 C :   -0.058503
  13 C :   -0.041716
  14 C :    0.015357
  15 C :    0.067113
  16 C :    0.015798
  17 C :   -0.188016
  18 O :    0.379835
  19 C :    0.021453
  20 H :   -0.024064
  21 H :   -0.022907
  22 H :   -0.027819
  23 H :   -0.030124
  24 H :   -0.024614
  25 H :   -0.019624
  26 H :   -0.009204
  27 H :   -0.007824
  28 H :   -0.038085
  29 H :   -0.052219
  30 H :   -0.006258
  31 H :   -0.028993
  32 H :   -0.027583
  33 H :   -0.028147
  34 H :   -0.150947
  35 H :   -0.041750

  Mayer bond orders larger than 0.100000
B(  0-C ,  1-C ) :   0.9660 B(  0-C , 20-H ) :   0.9735 B(  0-C , 21-H ) :   0.9778
B(  0-C , 22-H ) :   0.9789 B(  1-C ,  2-O ) :   0.8785 B(  1-C , 23-H ) :   0.9861
B(  1-C , 24-H ) :   0.9731 B(  2-O ,  3-C ) :   1.1691 B(  3-C ,  4-O ) :   1.9894
B(  3-C ,  5-C ) :   1.0714 B(  5-C ,  6-C ) :   1.5871 B(  5-C , 12-C ) :   0.9821
B(  6-C ,  7-C ) :   0.9454 B(  6-C ,  8-N ) :   1.2677 B(  7-C , 25-H ) :   0.9951
B(  7-C , 26-H ) :   0.9674 B(  7-C , 27-H ) :   0.9656 B(  8-N ,  9-C ) :   1.1171
B(  8-N , 28-H ) :   0.9419 B(  9-C , 10-S ) :   1.6443 B(  9-C , 11-N ) :   1.3485
B( 11-N , 12-C ) :   0.9467 B( 11-N , 29-H ) :   0.9503 B( 12-C , 13-C ) :   0.9517
B( 12-C , 30-H ) :   1.0066 B( 13-C , 14-C ) :   1.3708 B( 13-C , 19-C ) :   1.3226
B( 14-C , 15-C ) :   1.3779 B( 14-C , 31-H ) :   0.9695 B( 15-C , 16-C ) :   1.3851
B( 15-C , 32-H ) :   0.9711 B( 16-C , 17-C ) :   1.3721 B( 16-C , 33-H ) :   0.9636
B( 17-C , 18-O ) :   1.0675 B( 17-C , 19-C ) :   1.3677 B( 18-O , 34-H ) :   0.9742
B( 19-C , 35-H ) :   0.9618

MP2 TOTAL ENERGY:    -1274.313010099 Eh
FINAL SINGLE POINT ENERGY     -1274.313010099257

DIPOLE MOMENT
-------------
                                X             Y             Z
Electronic contribution:    -11.89985      -8.74581       8.50865
Nuclear contribution   :     12.71680      10.03199      -9.78594
                        -----------------------------------------
Total Dipole Moment    :      0.81694       1.28618      -1.27729
                        -----------------------------------------
Magnitude (a.u.)       :      1.98825
Magnitude (Debye)      :      5.05373

Rotational constants in cm-1:     0.010380     0.008646     0.005874
Rotational constants in MHz :   311.179499   259.189556   176.090759

                             ****ORCA TERMINATED NORMALLY****
TOTAL RUN TIME: 0 days 2 hours 0 minutes 40 seconds 861 msec
