                         Program Version 5.0.0 -  RELEASE  -
|  1> ! RI-MP2 cc-pVTZ cc-pVTZ/c TightSCF KeepDens NoKeepInts
|  2>
|  3> *xyz  0  1
|  4>     C    -0.0113992   -5.0697507    2.1184903
|  5>     C     1.2650119   -4.4659782    1.6271528
|  6>     O     1.6706597   -3.3554861    2.3890765
|  7>     C     0.9675370   -2.2167616    2.4060321
|  8>     O     0.3895738   -1.8243521    1.3950306
|  9>     C     1.4077057   -1.2682101    3.4592355
| 10>     C     2.1354186   -1.5541537    4.5490491
| 11>     C     2.4718599   -2.8644345    5.1030079
| 12>     N     2.5686594   -0.5655049    5.4342643
| 13>     C     2.2543738    0.7523363    5.3207021
| 14>     S     2.7674898    1.7790703    6.4896870
| 15>     N     1.6211897    1.1359725    4.1734616
| 16>     C     1.2691885    0.1982074    3.0781864
| 17>     C     2.1524009    0.5756956    1.8749823
| 18>     C     3.4060472   -0.0183056    1.7528704
| 19>     C     4.2370623    0.3025941    0.6349772
| 20>     C     3.8126317    1.2066512   -0.3733822
| 21>     C     2.5511324    1.7960507   -0.1995925
| 22>     O     2.1592815    2.6568890   -1.1667712
| 23>     C     1.7510673    1.4980063    0.9059344
| 24>     H    -0.0555374   -5.1180398    3.2134370
| 25>     H    -0.1997548   -6.0875902    1.7555653
| 26>     H    -0.8317145   -4.4613877    1.7182877
| 27>     H     2.0419292   -5.2399942    1.6050479
| 28>     H     1.2051533   -4.2645426    0.5505702
| 29>     H     3.4688478   -3.1919593    4.7837406
| 30>     H     1.6793797   -3.5932654    4.8933172
| 31>     H     2.5540537   -2.9549512    6.1930694
| 32>     H     3.1327480   -0.8125419    6.2384693
| 33>     H     1.5699848    2.1358025    4.0195640
| 34>     H     0.2499827    0.4046662    2.7292106
| 35>     H     3.8299256   -0.6459668    2.5311856
| 36>     H     5.1922501   -0.1915076    0.4837042
| 37>     H     4.3550322    1.4349914   -1.2861026
| 38>     H     1.1887829    2.5872107   -1.1641761
| 39>     H     0.7634213    1.9160160    1.0768713
| 40> *
| 41>
| 42>                          ****END OF INPUT****

CARTESIAN COORDINATES (ANGSTROEM)
---------------------------------
  C     -0.011399   -5.069751    2.118490
  C      1.265012   -4.465978    1.627153
  O      1.670660   -3.355486    2.389076
  C      0.967537   -2.216762    2.406032
  O      0.389574   -1.824352    1.395031
  C      1.407706   -1.268210    3.459235
  C      2.135419   -1.554154    4.549049
  C      2.471860   -2.864435    5.103008
  N      2.568659   -0.565505    5.434264
  C      2.254374    0.752336    5.320702
  S      2.767490    1.779070    6.489687
  N      1.621190    1.135973    4.173462
  C      1.269188    0.198207    3.078186
  C      2.152401    0.575696    1.874982
  C      3.406047   -0.018306    1.752870
  C      4.237062    0.302594    0.634977
  C      3.812632    1.206651   -0.373382
  C      2.551132    1.796051   -0.199593
  O      2.159282    2.656889   -1.166771
  C      1.751067    1.498006    0.905934
  H     -0.055537   -5.118040    3.213437
  H     -0.199755   -6.087590    1.755565
  H     -0.831715   -4.461388    1.718288
  H      2.041929   -5.239994    1.605048
  H      1.205153   -4.264543    0.550570
  H      3.468848   -3.191959    4.783741
  H      1.679380   -3.593265    4.893317
  H      2.554054   -2.954951    6.193069
  H      3.132748   -0.812542    6.238469
  H      1.569985    2.135803    4.019564
  H      0.249983    0.404666    2.729211
  H      3.829926   -0.645967    2.531186
  H      5.192250   -0.191508    0.483704
  H      4.355032    1.434991   -1.286103
  H      1.188783    2.587211   -1.164176
  H      0.763421    1.916016    1.076871

 Total Charge           Charge          ....    0
 Multiplicity           Mult            ....    1
 Number of Electrons    NEL             ....  154
 Basis Dimension        Dim             ....  828

ORBITAL ENERGIES
----------------

  NO   OCC          E(Eh)            E(eV)
   0   2.0000     -91.887126     -2500.3758
   1   2.0000     -20.609869      -560.8230
   2   2.0000     -20.590031      -560.2832
   3   2.0000     -20.546401      -559.0960
   4   2.0000     -15.626641      -425.2225
   5   2.0000     -15.609887      -424.7666
   6   2.0000     -11.398422      -310.1668
   7   2.0000     -11.379647      -309.6559
   8   2.0000     -11.333561      -308.4019
   9   2.0000     -11.308252      -307.7132
  10   2.0000     -11.305686      -307.6434
  11   2.0000     -11.297065      -307.4088
  12   2.0000     -11.261456      -306.4398
  13   2.0000     -11.256423      -306.3028
  14   2.0000     -11.252366      -306.1924
  15   2.0000     -11.250550      -306.1430
  16   2.0000     -11.234590      -305.7087
  17   2.0000     -11.232744      -305.6585
  18   2.0000     -11.231758      -305.6317
  19   2.0000     -11.230750      -305.6042
  20   2.0000      -8.892989      -241.9905
  21   2.0000      -6.574640      -178.9050
  22   2.0000      -6.572561      -178.8485
  23   2.0000      -6.571966      -178.8323
  24   2.0000      -1.472680       -40.0737
  25   2.0000      -1.412561       -38.4377
  26   2.0000      -1.359222       -36.9863
  27   2.0000      -1.345961       -36.6255
  28   2.0000      -1.240126       -33.7455
  29   2.0000      -1.156172       -31.4610
  30   2.0000      -1.127568       -30.6827
  31   2.0000      -1.056317       -28.7438
  32   2.0000      -1.044212       -28.4144
  33   2.0000      -1.012950       -27.5638
  34   2.0000      -0.998197       -27.1623
  35   2.0000      -0.989585       -26.9280
  36   2.0000      -0.926206       -25.2033
  37   2.0000      -0.909196       -24.7405
  38   2.0000      -0.848928       -23.1005
  39   2.0000      -0.844645       -22.9840
  40   2.0000      -0.826934       -22.5020
  41   2.0000      -0.803962       -21.8769
  42   2.0000      -0.762326       -20.7439
  43   2.0000      -0.743099       -20.2207
  44   2.0000      -0.731194       -19.8968
  45   2.0000      -0.698947       -19.0193
  46   2.0000      -0.692023       -18.8309
  47   2.0000      -0.682609       -18.5747
  48   2.0000      -0.672033       -18.2870
  49   2.0000      -0.668137       -18.1809
  50   2.0000      -0.659293       -17.9403
  51   2.0000      -0.656155       -17.8549
  52   2.0000      -0.640066       -17.4171
  53   2.0000      -0.619199       -16.8493
  54   2.0000      -0.608768       -16.5654
  55   2.0000      -0.607428       -16.5290
  56   2.0000      -0.591229       -16.0881
  57   2.0000      -0.579079       -15.7575
  58   2.0000      -0.569488       -15.4966
  59   2.0000      -0.566249       -15.4084
  60   2.0000      -0.558348       -15.1934
  61   2.0000      -0.548886       -14.9359
  62   2.0000      -0.540243       -14.7008
  63   2.0000      -0.534124       -14.5343
  64   2.0000      -0.512827       -13.9547
  65   2.0000      -0.507234       -13.8025
  66   2.0000      -0.498772       -13.5723
  67   2.0000      -0.487618       -13.2688
  68   2.0000      -0.482962       -13.1421
  69   2.0000      -0.463000       -12.5989
  70   2.0000      -0.458083       -12.4651
  71   2.0000      -0.454746       -12.3743
  72   2.0000      -0.359406        -9.7799
  73   2.0000      -0.341255        -9.2860
  74   2.0000      -0.327583        -8.9140
  75   2.0000      -0.324927        -8.8417
  76   2.0000      -0.310794        -8.4571
  77   0.0000       0.072433         1.9710
  78   0.0000       0.114782         3.1234
  79   0.0000       0.119537         3.2528
  80   0.0000       0.129422         3.5218
  81   0.0000       0.135320         3.6823

MULLIKEN ATOMIC CHARGES
-----------------------
   0 C :   -0.313429
   1 C :    0.026748
   2 O :   -0.313984
   3 C :    0.451729
   4 O :   -0.433897
   5 C :   -0.200416
   6 C :    0.175001
   7 C :   -0.320427
   8 N :   -0.114227
   9 C :    0.215734
  10 S :   -0.446410
  11 N :   -0.213435
  12 C :    0.061504
  13 C :    0.098805
  14 C :   -0.247390
  15 C :   -0.125016
  16 C :   -0.233823
  17 C :    0.313362
  18 O :   -0.361616
  19 C :   -0.292900
  20 H :    0.092777
  21 H :    0.108221
  22 H :    0.113110
  23 H :    0.101162
  24 H :    0.106115
  25 H :    0.126745
  26 H :    0.116517
  27 H :    0.112786
  28 H :    0.200111
  29 H :    0.196553
  30 H :    0.145279
  31 H :    0.158692
  32 H :    0.153808
  33 H :    0.169028
  34 H :    0.243009
  35 H :    0.130174
Sum of atomic charges:   -0.0000000

LOEWDIN ATOMIC CHARGES
----------------------
   0 C :    0.095742
   1 C :   -0.061841
   2 O :    0.361032
   3 C :   -0.429979
   4 O :    0.098110
   5 C :   -0.090642
   6 C :   -0.085959
   7 C :    0.112179
   8 N :    0.410525
   9 C :   -0.479562
  10 S :   -0.020505
  11 N :    0.398396
  12 C :   -0.031828
  13 C :   -0.037012
  14 C :    0.014308
  15 C :    0.055198
  16 C :    0.023742
  17 C :   -0.198342
  18 O :    0.392965
  19 C :    0.003833
  20 H :   -0.028160
  21 H :   -0.018093
  22 H :   -0.020679
  23 H :   -0.022437
  24 H :   -0.020834
  25 H :   -0.007001
  26 H :   -0.008453
  27 H :   -0.012252
  28 H :   -0.050104
  29 H :   -0.062059
  30 H :   -0.010515
  31 H :   -0.033317
  32 H :   -0.027808
  33 H :   -0.025743
  34 H :   -0.149532
  35 H :   -0.033374

  Mayer bond orders larger than 0.100000
B(  0-C ,  1-C ) :   0.9534 B(  0-C , 20-H ) :   0.9773 B(  0-C , 21-H ) :   0.9765
B(  0-C , 22-H ) :   0.9763 B(  1-C ,  2-O ) :   0.9269 B(  1-C , 23-H ) :   0.9865
B(  1-C , 24-H ) :   0.9814 B(  2-O ,  3-C ) :   1.1640 B(  3-C ,  4-O ) :   1.9845
B(  3-C ,  5-C ) :   1.0415 B(  5-C ,  6-C ) :   1.6456 B(  5-C , 12-C ) :   0.9925
B(  6-C ,  7-C ) :   0.9442 B(  6-C ,  8-N ) :   1.1590 B(  7-C , 25-H ) :   0.9614
B(  7-C , 26-H ) :   0.9747 B(  7-C , 27-H ) :   0.9878 B(  8-N ,  9-C ) :   1.1777
B(  8-N , 28-H ) :   0.9443 B(  9-C , 10-S ) :   1.6060 B(  9-C , 11-N ) :   1.3184
B( 11-N , 12-C ) :   0.9585 B( 11-N , 29-H ) :   0.9511 B( 12-C , 13-C ) :   0.9505
B( 12-C , 30-H ) :   0.9967 B( 13-C , 14-C ) :   1.3851 B( 13-C , 19-C ) :   1.3132
B( 14-C , 15-C ) :   1.3817 B( 14-C , 31-H ) :   0.9706 B( 15-C , 16-C ) :   1.3957
B( 15-C , 32-H ) :   0.9768 B( 16-C , 17-C ) :   1.3551 B( 16-C , 33-H ) :   0.9617
B( 17-C , 18-O ) :   1.0719 B( 17-C , 19-C ) :   1.3699 B( 18-O , 34-H ) :   0.9788
B( 19-C , 35-H ) :   0.9691

MP2 TOTAL ENERGY:    -1274.313856679 Eh
FINAL SINGLE POINT ENERGY     -1274.313856678524

DIPOLE MOMENT
-------------
                                X             Y             Z
Electronic contribution:      2.29347      17.06715       4.54986
Nuclear contribution   :     -2.66103     -19.37028      -4.93226
                        -----------------------------------------
Total Dipole Moment    :     -0.36756      -2.30312      -0.38239
                        -----------------------------------------
Magnitude (a.u.)       :      2.36341
Magnitude (Debye)      :      6.00731

Rotational constants in cm-1:     0.010063     0.009428     0.005556
Rotational constants in MHz :   301.672983   282.632795   166.554823

                             ****ORCA TERMINATED NORMALLY****
TOTAL RUN TIME: 0 days 1 hours 48 minutes 1 seconds 309 msec
