                         Program Version 5.0.0 -  RELEASE  -
|  1> ! RI-MP2 cc-pVTZ cc-pVTZ/c TightSCF KeepDens NoKeepInts
|  2>
|  3> %pointcharges "srfp_output"
|  4>
|  5> *xyz  0  1
|  6>     C    -0.0113992   -5.0697507    2.1184903
|  7>     C     1.2650119   -4.4659782    1.6271528
|  8>     O     1.6706597   -3.3554861    2.3890765
|  9>     C     0.9675370   -2.2167616    2.4060321
| 10>     O     0.3895738   -1.8243521    1.3950306
| 11>     C     1.4077057   -1.2682101    3.4592355
| 12>     C     2.1354186   -1.5541537    4.5490491
| 13>     C     2.4718599   -2.8644345    5.1030079
| 14>     N     2.5686594   -0.5655049    5.4342643
| 15>     C     2.2543738    0.7523363    5.3207021
| 16>     S     2.7674898    1.7790703    6.4896870
| 17>     N     1.6211897    1.1359725    4.1734616
| 18>     C     1.2691885    0.1982074    3.0781864
| 19>     C     2.1524009    0.5756956    1.8749823
| 20>     C     3.4060472   -0.0183056    1.7528704
| 21>     C     4.2370623    0.3025941    0.6349772
| 22>     C     3.8126317    1.2066512   -0.3733822
| 23>     C     2.5511324    1.7960507   -0.1995925
| 24>     O     2.1592815    2.6568890   -1.1667712
| 25>     C     1.7510673    1.4980063    0.9059344
| 26>     H    -0.0555374   -5.1180398    3.2134370
| 27>     H    -0.1997548   -6.0875902    1.7555653
| 28>     H    -0.8317145   -4.4613877    1.7182877
| 29>     H     2.0419292   -5.2399942    1.6050479
| 30>     H     1.2051533   -4.2645426    0.5505702
| 31>     H     3.4688478   -3.1919593    4.7837406
| 32>     H     1.6793797   -3.5932654    4.8933172
| 33>     H     2.5540537   -2.9549512    6.1930694
| 34>     H     3.1327480   -0.8125419    6.2384693
| 35>     H     1.5699848    2.1358025    4.0195640
| 36>     H     0.2499827    0.4046662    2.7292106
| 37>     H     3.8299256   -0.6459668    2.5311856
| 38>     H     5.1922501   -0.1915076    0.4837042
| 39>     H     4.3550322    1.4349914   -1.2861026
| 40>     H     1.1887829    2.5872107   -1.1641761
| 41>     H     0.7634213    1.9160160    1.0768713
| 42> *
| 43>
| 44>                          ****END OF INPUT****

CARTESIAN COORDINATES (ANGSTROEM)
---------------------------------
  C     -0.011399   -5.069751    2.118490
  C      1.265012   -4.465978    1.627153
  O      1.670660   -3.355486    2.389076
  C      0.967537   -2.216762    2.406032
  O      0.389574   -1.824352    1.395031
  C      1.407706   -1.268210    3.459235
  C      2.135419   -1.554154    4.549049
  C      2.471860   -2.864435    5.103008
  N      2.568659   -0.565505    5.434264
  C      2.254374    0.752336    5.320702
  S      2.767490    1.779070    6.489687
  N      1.621190    1.135973    4.173462
  C      1.269188    0.198207    3.078186
  C      2.152401    0.575696    1.874982
  C      3.406047   -0.018306    1.752870
  C      4.237062    0.302594    0.634977
  C      3.812632    1.206651   -0.373382
  C      2.551132    1.796051   -0.199593
  O      2.159282    2.656889   -1.166771
  C      1.751067    1.498006    0.905934
  H     -0.055537   -5.118040    3.213437
  H     -0.199755   -6.087590    1.755565
  H     -0.831715   -4.461388    1.718288
  H      2.041929   -5.239994    1.605048
  H      1.205153   -4.264543    0.550570
  H      3.468848   -3.191959    4.783741
  H      1.679380   -3.593265    4.893317
  H      2.554054   -2.954951    6.193069
  H      3.132748   -0.812542    6.238469
  H      1.569985    2.135803    4.019564
  H      0.249983    0.404666    2.729211
  H      3.829926   -0.645967    2.531186
  H      5.192250   -0.191508    0.483704
  H      4.355032    1.434991   -1.286103
  H      1.188783    2.587211   -1.164176
  H      0.763421    1.916016    1.076871

 Total Charge           Charge          ....    0
 Multiplicity           Mult            ....    1
 Number of Electrons    NEL             ....  154
 Basis Dimension        Dim             ....  828

ORBITAL ENERGIES
----------------

  NO   OCC          E(Eh)            E(eV)
   0   2.0000     -89.268434     -2429.1176
   1   2.0000     -17.961178      -488.7485
   2   2.0000     -17.937952      -488.1165
   3   2.0000     -17.914372      -487.4748
   4   2.0000     -12.976234      -353.1013
   5   2.0000     -12.967333      -352.8591
   6   2.0000      -8.765123      -238.5111
   7   2.0000      -8.750390      -238.1102
   8   2.0000      -8.680318      -236.2035
   9   2.0000      -8.658159      -235.6005
  10   2.0000      -8.657748      -235.5893
  11   2.0000      -8.632043      -234.8898
  12   2.0000      -8.608361      -234.2454
  13   2.0000      -8.604519      -234.1409
  14   2.0000      -8.601844      -234.0681
  15   2.0000      -8.586457      -233.6494
  16   2.0000      -8.584322      -233.5913
  17   2.0000      -8.583854      -233.5785
  18   2.0000      -8.581216      -233.5068
  19   2.0000      -8.559711      -232.9216
  20   2.0000      -6.276047      -170.7799
  21   2.0000      -3.958154      -107.7069
  22   2.0000      -3.956024      -107.6489
  23   2.0000      -3.955601      -107.6374
  24   2.0000       1.171305        31.8728
  25   2.0000       1.237795        33.6821
  26   2.0000       1.274918        34.6923
  27   2.0000       1.300748        35.3952
  28   2.0000       1.408791        38.3352
  29   2.0000       1.490346        40.5544
  30   2.0000       1.520794        41.3829
  31   2.0000       1.602483        43.6058
  32   2.0000       1.609014        43.7835
  33   2.0000       1.640512        44.6406
  34   2.0000       1.646281        44.7976
  35   2.0000       1.653480        44.9935
  36   2.0000       1.722589        46.8740
  37   2.0000       1.748451        47.5778
  38   2.0000       1.798399        48.9369
  39   2.0000       1.804973        49.1158
  40   2.0000       1.826468        49.7007
  41   2.0000       1.844796        50.1995
  42   2.0000       1.886761        51.3414
  43   2.0000       1.904904        51.8351
  44   2.0000       1.919447        52.2308
  45   2.0000       1.945814        52.9483
  46   2.0000       1.957470        53.2655
  47   2.0000       1.965724        53.4901
  48   2.0000       1.978330        53.8331
  49   2.0000       1.982690        53.9517
  50   2.0000       1.986546        54.0567
  51   2.0000       1.997373        54.3513
  52   2.0000       2.014255        54.8107
  53   2.0000       2.035484        55.3883
  54   2.0000       2.037774        55.4506
  55   2.0000       2.051854        55.8338
  56   2.0000       2.061318        56.0913
  57   2.0000       2.073856        56.4325
  58   2.0000       2.083275        56.6888
  59   2.0000       2.089180        56.8495
  60   2.0000       2.090390        56.8824
  61   2.0000       2.099201        57.1222
  62   2.0000       2.113660        57.5156
  63   2.0000       2.125650        57.8419
  64   2.0000       2.134565        58.0845
  65   2.0000       2.138183        58.1829
  66   2.0000       2.152172        58.5636
  67   2.0000       2.161188        58.8089
  68   2.0000       2.162929        58.8563
  69   2.0000       2.185356        59.4666
  70   2.0000       2.187932        59.5366
  71   2.0000       2.191453        59.6325
  72   2.0000       2.278500        62.0011
  73   2.0000       2.283987        62.1505
  74   2.0000       2.301321        62.6221
  75   2.0000       2.308633        62.8211
  76   2.0000       2.330287        63.4103
  77   0.0000       2.714831        73.8743
  78   0.0000       2.765757        75.2601
  79   0.0000       2.776660        75.5568
  80   0.0000       2.796252        76.0899
  81   0.0000       2.800417        76.2032

MULLIKEN ATOMIC CHARGES
-----------------------
   0 C :   -0.307495
   1 C :    0.014324
   2 O :   -0.306586
   3 C :    0.514330
   4 O :   -0.585761
   5 C :   -0.180647
   6 C :    0.181467
   7 C :   -0.316556
   8 N :   -0.129518
   9 C :    0.349955
  10 S :   -0.712319
  11 N :   -0.230440
  12 C :    0.087503
  13 C :    0.042667
  14 C :   -0.318432
  15 C :   -0.181981
  16 C :   -0.262252
  17 C :    0.329161
  18 O :   -0.458253
  19 C :   -0.278058
  20 H :    0.106696
  21 H :    0.120690
  22 H :    0.102188
  23 H :    0.123749
  24 H :    0.106636
  25 H :    0.138377
  26 H :    0.124240
  27 H :    0.134991
  28 H :    0.265484
  29 H :    0.255782
  30 H :    0.165377
  31 H :    0.209578
  32 H :    0.197267
  33 H :    0.193111
  34 H :    0.334465
  35 H :    0.170259
Sum of atomic charges:   -0.0000000

LOEWDIN ATOMIC CHARGES
----------------------
   0 C :    0.101242
   1 C :   -0.059874
   2 O :    0.368916
   3 C :   -0.401131
   4 O :    0.002143
   5 C :   -0.086164
   6 C :   -0.064769
   7 C :    0.123540
   8 N :    0.430389
   9 C :   -0.443497
  10 S :   -0.194019
  11 N :    0.420852
  12 C :   -0.024951
  13 C :   -0.050809
  14 C :   -0.001744
  15 C :    0.039429
  16 C :    0.012062
  17 C :   -0.206867
  18 O :    0.357097
  19 C :    0.016686
  20 H :   -0.022501
  21 H :   -0.011370
  22 H :   -0.023655
  23 H :   -0.014144
  24 H :   -0.022351
  25 H :    0.000172
  26 H :   -0.004322
  27 H :    0.000231
  28 H :   -0.018901
  29 H :   -0.033076
  30 H :   -0.003241
  31 H :   -0.024714
  32 H :   -0.017128
  33 H :   -0.020694
  34 H :   -0.107602
  35 H :   -0.015236

  Mayer bond orders larger than 0.100000
B(  0-C ,  1-C ) :   0.9540 B(  0-C , 20-H ) :   0.9743 B(  0-C , 21-H ) :   0.9728
B(  0-C , 22-H ) :   0.9784 B(  1-C ,  2-O ) :   0.9028 B(  1-C , 23-H ) :   0.9818
B(  1-C , 24-H ) :   0.9816 B(  2-O ,  3-C ) :   1.2136 B(  3-C ,  4-O ) :   1.8897
B(  3-C ,  5-C ) :   1.0831 B(  5-C ,  6-C ) :   1.6278 B(  5-C , 12-C ) :   0.9836
B(  6-C ,  7-C ) :   0.9496 B(  6-C ,  8-N ) :   1.1519 B(  7-C , 25-H ) :   0.9550
B(  7-C , 26-H ) :   0.9727 B(  7-C , 27-H ) :   0.9799 B(  8-N ,  9-C ) :   1.2642
B(  8-N , 28-H ) :   0.9192 B(  9-C , 10-S ) :   1.2989 B(  9-C , 11-N ) :   1.4174
B( 11-N , 12-C ) :   0.9506 B( 11-N , 29-H ) :   0.9220 B( 12-C , 13-C ) :   0.9429
B( 12-C , 30-H ) :   0.9967 B( 13-C , 14-C ) :   1.3443 B( 13-C , 19-C ) :   1.3076
B( 14-C , 15-C ) :   1.3858 B( 14-C , 31-H ) :   0.9565 B( 15-C , 16-C ) :   1.3958
B( 15-C , 32-H ) :   0.9623 B( 16-C , 17-C ) :   1.3259 B( 16-C , 33-H ) :   0.9529
B( 17-C , 18-O ) :   1.0800 B( 17-C , 19-C ) :   1.3736 B( 18-O , 34-H ) :   0.9139
B( 19-C , 35-H ) :   0.9615

MP2 TOTAL ENERGY:    -1274.443891179 Eh
FINAL SINGLE POINT ENERGY     -1274.443891178505

DIPOLE MOMENT
-------------
                                X             Y             Z
Electronic contribution:      1.92987      15.96187       4.50858
Nuclear contribution   :     -2.66103     -19.37028      -4.93226
                        -----------------------------------------
Total Dipole Moment    :     -0.73116      -3.40841      -0.42367
                        -----------------------------------------
Magnitude (a.u.)       :      3.51160
Magnitude (Debye)      :      8.92577

Rotational constants in cm-1:     0.010063     0.009428     0.005556
Rotational constants in MHz :   301.672983   282.632795   166.554823

                             ****ORCA TERMINATED NORMALLY****
TOTAL RUN TIME: 0 days 1 hours 56 minutes 18 seconds 509 msec
