                         Program Version 5.0.0 -  RELEASE  -
|  1> ! RI-MP2 cc-pVTZ cc-pVTZ/c TightSCF KeepDens NoKeepInts
|  2>
|  3> %pointcharges "srfp_output"
|  4>
|  5> *xyz  0  1
|  6>     C    12.6118215   -7.7878836   -2.3166826
|  7>     C    11.6992247   -7.8979121   -3.5622207
|  8>     O    12.5839364   -7.8904947   -4.7181180
|  9>     C    12.2121636   -8.4717050   -5.8326634
| 10>     O    11.0566019   -8.9616125   -5.9809888
| 11>     C    13.2684776   -8.5133884   -6.9297629
| 12>     C    14.4329248   -7.8990455   -6.8501705
| 13>     C    14.8832435   -6.7837477   -5.9452079
| 14>     N    15.3319955   -8.0665339   -7.9273400
| 15>     C    15.0211460   -8.7248456   -9.0541089
| 16>     S    15.8366851   -8.5678889  -10.5232329
| 17>     N    13.8076361   -9.2080627   -9.1432793
| 18>     C    12.9091223   -9.4830063   -8.0410030
| 19>     C    12.8406508  -10.9758756   -7.5164749
| 20>     C    11.9249402  -11.8987496   -8.0302228
| 21>     C    11.8452314  -13.2861126   -7.6455664
| 22>     C    12.7874300  -13.6537439   -6.6353408
| 23>     C    13.7739447  -12.7933028   -6.1209448
| 24>     O    14.6990488  -13.3086978   -5.2492355
| 25>     C    13.8362832  -11.4562765   -6.5919716
| 26>     H    12.7392910   -6.7451705   -2.0009425
| 27>     H    13.6208490   -8.1717513   -2.5108438
| 28>     H    12.3735063   -8.3684582   -1.4170510
| 29>     H    11.1978528   -8.8613166   -3.4083781
| 30>     H    10.9961851   -7.0560191   -3.5745522
| 31>     H    15.6304533   -6.1173224   -6.3932556
| 32>     H    15.5084773   -7.2793807   -5.1924661
| 33>     H    14.1585887   -6.0939677   -5.4954592
| 34>     H    16.2618663   -7.6732902   -7.8456939
| 35>     H    13.4680659   -9.6415793   -9.9934098
| 36>     H    11.9210029   -9.1694781   -8.3994879
| 37>     H    11.2450439  -11.5421827   -8.7983355
| 38>     H    11.1233644  -13.9601203   -8.0972495
| 39>     H    12.9417900  -14.7005600   -6.3909127
| 40>     H    15.1678122  -12.5437850   -4.8725415
| 41>     H    14.6168104  -10.7511661   -6.3217986
| 42> *
| 43>
| 44>                          ****END OF INPUT****

CARTESIAN COORDINATES (ANGSTROEM)
---------------------------------
  C     12.611821   -7.787884   -2.316683
  C     11.699225   -7.897912   -3.562221
  O     12.583936   -7.890495   -4.718118
  C     12.212164   -8.471705   -5.832663
  O     11.056602   -8.961612   -5.980989
  C     13.268478   -8.513388   -6.929763
  C     14.432925   -7.899045   -6.850170
  C     14.883244   -6.783748   -5.945208
  N     15.331995   -8.066534   -7.927340
  C     15.021146   -8.724846   -9.054109
  S     15.836685   -8.567889  -10.523233
  N     13.807636   -9.208063   -9.143279
  C     12.909122   -9.483006   -8.041003
  C     12.840651  -10.975876   -7.516475
  C     11.924940  -11.898750   -8.030223
  C     11.845231  -13.286113   -7.645566
  C     12.787430  -13.653744   -6.635341
  C     13.773945  -12.793303   -6.120945
  O     14.699049  -13.308698   -5.249235
  C     13.836283  -11.456276   -6.591972
  H     12.739291   -6.745171   -2.000942
  H     13.620849   -8.171751   -2.510844
  H     12.373506   -8.368458   -1.417051
  H     11.197853   -8.861317   -3.408378
  H     10.996185   -7.056019   -3.574552
  H     15.630453   -6.117322   -6.393256
  H     15.508477   -7.279381   -5.192466
  H     14.158589   -6.093968   -5.495459
  H     16.261866   -7.673290   -7.845694
  H     13.468066   -9.641579   -9.993410
  H     11.921003   -9.169478   -8.399488
  H     11.245044  -11.542183   -8.798336
  H     11.123364  -13.960120   -8.097250
  H     12.941790  -14.700560   -6.390913
  H     15.167812  -12.543785   -4.872541
  H     14.616810  -10.751166   -6.321799

 Total Charge           Charge          ....    0
 Multiplicity           Mult            ....    1
 Number of Electrons    NEL             ....  154
 Basis Dimension        Dim             ....  828

ORBITAL ENERGIES
----------------

  NO   OCC          E(Eh)            E(eV)
   0   2.0000     -93.810232     -2552.7062
   1   2.0000     -22.507138      -612.4504
   2   2.0000     -22.478436      -611.6693
   3   2.0000     -22.444670      -610.7505
   4   2.0000     -17.518058      -476.6906
   5   2.0000     -17.506212      -476.3682
   6   2.0000     -13.302882      -361.9898
   7   2.0000     -13.287658      -361.5756
   8   2.0000     -13.216645      -359.6432
   9   2.0000     -13.202365      -359.2546
  10   2.0000     -13.197744      -359.1289
  11   2.0000     -13.183183      -358.7327
  12   2.0000     -13.153170      -357.9160
  13   2.0000     -13.148051      -357.7767
  14   2.0000     -13.147565      -357.7634
  15   2.0000     -13.134556      -357.4094
  16   2.0000     -13.129811      -357.2803
  17   2.0000     -13.127509      -357.2177
  18   2.0000     -13.124749      -357.1426
  19   2.0000     -13.098282      -356.4224
  20   2.0000     -10.816399      -294.3292
  21   2.0000      -8.498391      -231.2530
  22   2.0000      -8.496353      -231.1975
  23   2.0000      -8.496067      -231.1897
  24   2.0000      -3.361783       -91.4788
  25   2.0000      -3.291120       -89.5559
  26   2.0000      -3.255456       -88.5855
  27   2.0000      -3.241435       -88.2039
  28   2.0000      -3.141455       -85.4833
  29   2.0000      -3.040253       -82.7295
  30   2.0000      -3.014490       -82.0284
  31   2.0000      -2.929692       -79.7210
  32   2.0000      -2.919982       -79.4568
  33   2.0000      -2.892060       -78.6970
  34   2.0000      -2.884810       -78.4997
  35   2.0000      -2.881896       -78.4204
  36   2.0000      -2.814671       -76.5911
  37   2.0000      -2.776701       -75.5579
  38   2.0000      -2.751175       -74.8633
  39   2.0000      -2.733933       -74.3941
  40   2.0000      -2.706696       -73.6530
  41   2.0000      -2.694776       -73.3286
  42   2.0000      -2.657045       -72.3019
  43   2.0000      -2.642428       -71.9041
  44   2.0000      -2.618136       -71.2431
  45   2.0000      -2.582184       -70.2648
  46   2.0000      -2.578331       -70.1600
  47   2.0000      -2.574102       -70.0449
  48   2.0000      -2.561961       -69.7145
  49   2.0000      -2.552649       -69.4611
  50   2.0000      -2.547656       -69.3252
  51   2.0000      -2.532065       -68.9010
  52   2.0000      -2.521933       -68.6253
  53   2.0000      -2.500688       -68.0472
  54   2.0000      -2.486896       -67.6719
  55   2.0000      -2.481488       -67.5247
  56   2.0000      -2.477489       -67.4159
  57   2.0000      -2.470111       -67.2151
  58   2.0000      -2.455712       -66.8233
  59   2.0000      -2.444327       -66.5135
  60   2.0000      -2.442305       -66.4585
  61   2.0000      -2.429240       -66.1030
  62   2.0000      -2.417826       -65.7924
  63   2.0000      -2.405263       -65.4505
  64   2.0000      -2.396310       -65.2069
  65   2.0000      -2.395204       -65.1768
  66   2.0000      -2.386952       -64.9523
  67   2.0000      -2.374722       -64.6195
  68   2.0000      -2.367835       -64.4321
  69   2.0000      -2.361453       -64.2584
  70   2.0000      -2.354290       -64.0635
  71   2.0000      -2.349162       -63.9239
  72   2.0000      -2.260544       -61.5125
  73   2.0000      -2.257648       -61.4337
  74   2.0000      -2.243684       -61.0537
  75   2.0000      -2.225055       -60.5468
  76   2.0000      -2.208122       -60.0861
  77   0.0000      -1.814348       -49.3709
  78   0.0000      -1.786776       -48.6207
  79   0.0000      -1.754915       -47.7537
  80   0.0000      -1.746237       -47.5175
  81   0.0000      -1.739373       -47.3307

MULLIKEN ATOMIC CHARGES
-----------------------
   0 C :   -0.299327
   1 C :    0.029478
   2 O :   -0.277944
   3 C :    0.521706
   4 O :   -0.630576
   5 C :   -0.174959
   6 C :    0.154527
   7 C :   -0.306644
   8 N :   -0.142127
   9 C :    0.362031
  10 S :   -0.815480
  11 N :   -0.167632
  12 C :    0.094854
  13 C :   -0.042621
  14 C :   -0.207829
  15 C :   -0.174829
  16 C :   -0.242451
  17 C :    0.294850
  18 O :   -0.450585
  19 C :   -0.288759
  20 H :    0.101313
  21 H :    0.107439
  22 H :    0.116549
  23 H :    0.115832
  24 H :    0.124341
  25 H :    0.128361
  26 H :    0.134297
  27 H :    0.145262
  28 H :    0.261179
  29 H :    0.264607
  30 H :    0.167461
  31 H :    0.179044
  32 H :    0.216491
  33 H :    0.173287
  34 H :    0.329107
  35 H :    0.199749
Sum of atomic charges:    0.0000000

LOEWDIN ATOMIC CHARGES
----------------------
   0 C :    0.108077
   1 C :    0.023532
   2 O :    0.368541
   3 C :   -0.376744
   4 O :   -0.073922
   5 C :   -0.088767
   6 C :   -0.057111
   7 C :    0.135692
   8 N :    0.439979
   9 C :   -0.431781
  10 S :   -0.304939
  11 N :    0.441716
  12 C :   -0.034738
  13 C :   -0.040113
  14 C :    0.001254
  15 C :    0.058464
  16 C :    0.006486
  17 C :   -0.190860
  18 O :    0.341930
  19 C :    0.025135
  20 H :   -0.027428
  21 H :   -0.021692
  22 H :   -0.020350
  23 H :   -0.025190
  24 H :   -0.020456
  25 H :   -0.004397
  26 H :   -0.002529
  27 H :   -0.005948
  28 H :   -0.015140
  29 H :   -0.014853
  30 H :    0.002657
  31 H :   -0.022351
  32 H :   -0.014216
  33 H :   -0.024707
  34 H :   -0.109953
  35 H :   -0.025279

  Mayer bond orders larger than 0.100000
B(  0-C ,  1-C ) :   0.9516 B(  0-C , 20-H ) :   0.9840 B(  0-C , 21-H ) :   0.9727
B(  0-C , 22-H ) :   0.9799 B(  1-C ,  2-O ) :   0.8633 B(  1-C , 23-H ) :   0.9811
B(  1-C , 24-H ) :   0.9787 B(  2-O ,  3-C ) :   1.3091 B(  3-C ,  4-O ) :   1.8208
B(  3-C ,  5-C ) :   1.0778 B(  5-C ,  6-C ) :   1.6452 B(  5-C , 12-C ) :   0.9790
B(  6-C ,  7-C ) :   0.9632 B(  6-C ,  8-N ) :   1.0931 B(  7-C , 25-H ) :   0.9812
B(  7-C , 26-H ) :   0.9572 B(  7-C , 27-H ) :   0.9643 B(  8-N ,  9-C ) :   1.3334
B(  8-N , 28-H ) :   0.9233 B(  9-C , 10-S ) :   1.0974 B(  9-C , 11-N ) :   1.4693
B( 11-N , 12-C ) :   0.9399 B( 11-N , 29-H ) :   0.9187 B( 12-C , 13-C ) :   0.9604
B( 12-C , 30-H ) :   0.9878 B( 13-C , 14-C ) :   1.4075 B( 13-C , 19-C ) :   1.2749
B( 14-C , 15-C ) :   1.3507 B( 14-C , 31-H ) :   0.9609 B( 15-C , 16-C ) :   1.4018
B( 15-C , 32-H ) :   0.9491 B( 16-C , 17-C ) :   1.3155 B( 16-C , 33-H ) :   0.9636
B( 17-C , 18-O ) :   1.0917 B( 17-C , 19-C ) :   1.4085 B( 18-O , 34-H ) :   0.9135
B( 19-C , 35-H ) :   0.9557

MP2 TOTAL ENERGY:    -1274.453815534 Eh
FINAL SINGLE POINT ENERGY     -1274.453815534196

DIPOLE MOMENT
-------------
                                X             Y             Z
Electronic contribution:      3.35860      -4.22975     -14.69868
Nuclear contribution   :     -3.32929       5.58429      18.61284
                        -----------------------------------------
Total Dipole Moment    :      0.02931       1.35455       3.91416
                        -----------------------------------------
Magnitude (a.u.)       :      4.14202
Magnitude (Debye)      :     10.52818

Rotational constants in cm-1:     0.010011     0.009055     0.005891
Rotational constants in MHz :   300.107413   271.463671   176.618906

                             ****ORCA TERMINATED NORMALLY****
TOTAL RUN TIME: 0 days 1 hours 48 minutes 0 seconds 770 msec
