                         Program Version 5.0.0 -  RELEASE  -
|  1> ! RI-MP2 cc-pVTZ cc-pVTZ/c TightSCF KeepDens NoKeepInts
|  2>
|  3> *xyz  0  1
|  4>     C    12.6118215   -7.7878836   -2.3166826
|  5>     C    11.6992247   -7.8979121   -3.5622207
|  6>     O    12.5839364   -7.8904947   -4.7181180
|  7>     C    12.2121636   -8.4717050   -5.8326634
|  8>     O    11.0566019   -8.9616125   -5.9809888
|  9>     C    13.2684776   -8.5133884   -6.9297629
| 10>     C    14.4329248   -7.8990455   -6.8501705
| 11>     C    14.8832435   -6.7837477   -5.9452079
| 12>     N    15.3319955   -8.0665339   -7.9273400
| 13>     C    15.0211460   -8.7248456   -9.0541089
| 14>     S    15.8366851   -8.5678889  -10.5232329
| 15>     N    13.8076361   -9.2080627   -9.1432793
| 16>     C    12.9091223   -9.4830063   -8.0410030
| 17>     C    12.8406508  -10.9758756   -7.5164749
| 18>     C    11.9249402  -11.8987496   -8.0302228
| 19>     C    11.8452314  -13.2861126   -7.6455664
| 20>     C    12.7874300  -13.6537439   -6.6353408
| 21>     C    13.7739447  -12.7933028   -6.1209448
| 22>     O    14.6990488  -13.3086978   -5.2492355
| 23>     C    13.8362832  -11.4562765   -6.5919716
| 24>     H    12.7392910   -6.7451705   -2.0009425
| 25>     H    13.6208490   -8.1717513   -2.5108438
| 26>     H    12.3735063   -8.3684582   -1.4170510
| 27>     H    11.1978528   -8.8613166   -3.4083781
| 28>     H    10.9961851   -7.0560191   -3.5745522
| 29>     H    15.6304533   -6.1173224   -6.3932556
| 30>     H    15.5084773   -7.2793807   -5.1924661
| 31>     H    14.1585887   -6.0939677   -5.4954592
| 32>     H    16.2618663   -7.6732902   -7.8456939
| 33>     H    13.4680659   -9.6415793   -9.9934098
| 34>     H    11.9210029   -9.1694781   -8.3994879
| 35>     H    11.2450439  -11.5421827   -8.7983355
| 36>     H    11.1233644  -13.9601203   -8.0972495
| 37>     H    12.9417900  -14.7005600   -6.3909127
| 38>     H    15.1678122  -12.5437850   -4.8725415
| 39>     H    14.6168104  -10.7511661   -6.3217986
| 40> *
| 41>
| 42>                          ****END OF INPUT****

CARTESIAN COORDINATES (ANGSTROEM)
---------------------------------
  C     12.611821   -7.787884   -2.316683
  C     11.699225   -7.897912   -3.562221
  O     12.583936   -7.890495   -4.718118
  C     12.212164   -8.471705   -5.832663
  O     11.056602   -8.961612   -5.980989
  C     13.268478   -8.513388   -6.929763
  C     14.432925   -7.899045   -6.850170
  C     14.883244   -6.783748   -5.945208
  N     15.331995   -8.066534   -7.927340
  C     15.021146   -8.724846   -9.054109
  S     15.836685   -8.567889  -10.523233
  N     13.807636   -9.208063   -9.143279
  C     12.909122   -9.483006   -8.041003
  C     12.840651  -10.975876   -7.516475
  C     11.924940  -11.898750   -8.030223
  C     11.845231  -13.286113   -7.645566
  C     12.787430  -13.653744   -6.635341
  C     13.773945  -12.793303   -6.120945
  O     14.699049  -13.308698   -5.249235
  C     13.836283  -11.456276   -6.591972
  H     12.739291   -6.745171   -2.000942
  H     13.620849   -8.171751   -2.510844
  H     12.373506   -8.368458   -1.417051
  H     11.197853   -8.861317   -3.408378
  H     10.996185   -7.056019   -3.574552
  H     15.630453   -6.117322   -6.393256
  H     15.508477   -7.279381   -5.192466
  H     14.158589   -6.093968   -5.495459
  H     16.261866   -7.673290   -7.845694
  H     13.468066   -9.641579   -9.993410
  H     11.921003   -9.169478   -8.399488
  H     11.245044  -11.542183   -8.798336
  H     11.123364  -13.960120   -8.097250
  H     12.941790  -14.700560   -6.390913
  H     15.167812  -12.543785   -4.872541
  H     14.616810  -10.751166   -6.321799

 Total Charge           Charge          ....    0
 Multiplicity           Mult            ....    1
 Number of Electrons    NEL             ....  154
 Basis Dimension        Dim             ....  828

ORBITAL ENERGIES
----------------

  NO   OCC          E(Eh)            E(eV)
   0   2.0000     -91.876847     -2500.0961
   1   2.0000     -20.623071      -561.1823
   2   2.0000     -20.598547      -560.5149
   3   2.0000     -20.540063      -558.9235
   4   2.0000     -15.631636      -425.3584
   5   2.0000     -15.609012      -424.7428
   6   2.0000     -11.400893      -310.2341
   7   2.0000     -11.376146      -309.5607
   8   2.0000     -11.334485      -308.4270
   9   2.0000     -11.316714      -307.9434
  10   2.0000     -11.314091      -307.8721
  11   2.0000     -11.310303      -307.7690
  12   2.0000     -11.266331      -306.5724
  13   2.0000     -11.266177      -306.5683
  14   2.0000     -11.265600      -306.5526
  15   2.0000     -11.262181      -306.4595
  16   2.0000     -11.250123      -306.1314
  17   2.0000     -11.242457      -305.9228
  18   2.0000     -11.241502      -305.8968
  19   2.0000     -11.239295      -305.8368
  20   2.0000      -8.881388      -241.6749
  21   2.0000      -6.562934      -178.5865
  22   2.0000      -6.560845      -178.5297
  23   2.0000      -6.560371      -178.5168
  24   2.0000      -1.474583       -40.1254
  25   2.0000      -1.409813       -38.3630
  26   2.0000      -1.362741       -37.0821
  27   2.0000      -1.336628       -36.3715
  28   2.0000      -1.252858       -34.0920
  29   2.0000      -1.151513       -31.3343
  30   2.0000      -1.127287       -30.6750
  31   2.0000      -1.054437       -28.6927
  32   2.0000      -1.040836       -28.3226
  33   2.0000      -1.006977       -27.4012
  34   2.0000      -1.005640       -27.3649
  35   2.0000      -0.980452       -26.6794
  36   2.0000      -0.923201       -25.1216
  37   2.0000      -0.900962       -24.5164
  38   2.0000      -0.860386       -23.4123
  39   2.0000      -0.849490       -23.1158
  40   2.0000      -0.825488       -22.4627
  41   2.0000      -0.809184       -22.0190
  42   2.0000      -0.770538       -20.9674
  43   2.0000      -0.753719       -20.5097
  44   2.0000      -0.734931       -19.9985
  45   2.0000      -0.698823       -19.0159
  46   2.0000      -0.692907       -18.8550
  47   2.0000      -0.685484       -18.6530
  48   2.0000      -0.675476       -18.3806
  49   2.0000      -0.663097       -18.0438
  50   2.0000      -0.658984       -17.9319
  51   2.0000      -0.651174       -17.7193
  52   2.0000      -0.636591       -17.3225
  53   2.0000      -0.620788       -16.8925
  54   2.0000      -0.607693       -16.5362
  55   2.0000      -0.603008       -16.4087
  56   2.0000      -0.598633       -16.2896
  57   2.0000      -0.588555       -16.0154
  58   2.0000      -0.573319       -15.6008
  59   2.0000      -0.563862       -15.3435
  60   2.0000      -0.555219       -15.1083
  61   2.0000      -0.548871       -14.9355
  62   2.0000      -0.539596       -14.6832
  63   2.0000      -0.529209       -14.4005
  64   2.0000      -0.513624       -13.9764
  65   2.0000      -0.505753       -13.7622
  66   2.0000      -0.500624       -13.6227
  67   2.0000      -0.493403       -13.4262
  68   2.0000      -0.480815       -13.0837
  69   2.0000      -0.468592       -12.7510
  70   2.0000      -0.455941       -12.4068
  71   2.0000      -0.453716       -12.3462
  72   2.0000      -0.366843        -9.9823
  73   2.0000      -0.341048        -9.2804
  74   2.0000      -0.320783        -8.7290
  75   2.0000      -0.314439        -8.5563
  76   2.0000      -0.308743        -8.4013
  77   0.0000       0.080057         2.1785
  78   0.0000       0.097559         2.6547
  79   0.0000       0.104568         2.8454
  80   0.0000       0.129736         3.5303
  81   0.0000       0.133134         3.6228

MULLIKEN ATOMIC CHARGES
-----------------------
   0 C :   -0.297924
   1 C :    0.043588
   2 O :   -0.302143
   3 C :    0.447640
   4 O :   -0.465944
   5 C :   -0.175965
   6 C :    0.129382
   7 C :   -0.312629
   8 N :   -0.123530
   9 C :    0.180729
  10 S :   -0.489864
  11 N :   -0.133172
  12 C :    0.037387
  13 C :    0.047217
  14 C :   -0.160541
  15 C :   -0.157182
  16 C :   -0.196479
  17 C :    0.283635
  18 O :   -0.354934
  19 C :   -0.306578
  20 H :    0.093879
  21 H :    0.095084
  22 H :    0.109805
  23 H :    0.119637
  24 H :    0.106355
  25 H :    0.115882
  26 H :    0.113159
  27 H :    0.140511
  28 H :    0.196354
  29 H :    0.194201
  30 H :    0.158305
  31 H :    0.138684
  32 H :    0.181869
  33 H :    0.154070
  34 H :    0.241615
  35 H :    0.147895
Sum of atomic charges:    0.0000000

LOEWDIN ATOMIC CHARGES
----------------------
   0 C :    0.101789
   1 C :    0.022045
   2 O :    0.349735
   3 C :   -0.408506
   4 O :    0.031788
   5 C :   -0.089694
   6 C :   -0.083174
   7 C :    0.123941
   8 N :    0.416360
   9 C :   -0.475807
  10 S :   -0.100252
  11 N :    0.417835
  12 C :   -0.043610
  13 C :   -0.019363
  14 C :    0.014232
  15 C :    0.067859
  16 C :    0.020034
  17 C :   -0.183722
  18 O :    0.377045
  19 C :    0.011077
  20 H :   -0.031353
  21 H :   -0.026624
  22 H :   -0.024366
  23 H :   -0.022425
  24 H :   -0.025690
  25 H :   -0.014335
  26 H :   -0.013975
  27 H :   -0.009520
  28 H :   -0.049075
  29 H :   -0.047359
  30 H :   -0.002413
  31 H :   -0.034720
  32 H :   -0.023705
  33 H :   -0.028915
  34 H :   -0.152273
  35 H :   -0.042861

  Mayer bond orders larger than 0.100000
B(  0-C ,  1-C ) :   0.9462 B(  0-C , 20-H ) :   0.9857 B(  0-C , 21-H ) :   0.9748
B(  0-C , 22-H ) :   0.9811 B(  1-C ,  2-O ) :   0.8807 B(  1-C , 23-H ) :   0.9798
B(  1-C , 24-H ) :   0.9833 B(  2-O ,  3-C ) :   1.2480 B(  3-C ,  4-O ) :   1.9320
B(  3-C ,  5-C ) :   1.0455 B(  5-C ,  6-C ) :   1.6670 B(  5-C , 12-C ) :   0.9820
B(  6-C ,  7-C ) :   0.9551 B(  6-C ,  8-N ) :   1.0978 B(  7-C , 25-H ) :   0.9875
B(  7-C , 26-H ) :   0.9669 B(  7-C , 27-H ) :   0.9658 B(  8-N ,  9-C ) :   1.2290
B(  8-N , 28-H ) :   0.9552 B(  9-C , 10-S ) :   1.5007 B(  9-C , 11-N ) :   1.3616
B( 11-N , 12-C ) :   0.9531 B( 11-N , 29-H ) :   0.9513 B( 12-C , 13-C ) :   0.9710
B( 12-C , 30-H ) :   0.9861 B( 13-C , 14-C ) :   1.4168 B( 13-C , 19-C ) :   1.3042
B( 14-C , 15-C ) :   1.3594 B( 14-C , 31-H ) :   0.9714 B( 15-C , 16-C ) :   1.4095
B( 15-C , 32-H ) :   0.9610 B( 16-C , 17-C ) :   1.3382 B( 16-C , 33-H ) :   0.9679
B( 17-C , 18-O ) :   1.0939 B( 17-C , 19-C ) :   1.3900 B( 18-O , 34-H ) :   0.9802
B( 19-C , 35-H ) :   0.9668

MP2 TOTAL ENERGY:    -1274.294439105 Eh
FINAL SINGLE POINT ENERGY     -1274.294439105015

DIPOLE MOMENT
-------------
                                X             Y             Z
Electronic contribution:      3.13555      -4.71688     -16.12096
Nuclear contribution   :     -3.32929       5.58429      18.61284
                        -----------------------------------------
Total Dipole Moment    :     -0.19374       0.86742       2.49188
                        -----------------------------------------
Magnitude (a.u.)       :      2.64564
Magnitude (Debye)      :      6.72469

Rotational constants in cm-1:     0.010011     0.009055     0.005891
Rotational constants in MHz :   300.107413   271.463671   176.618906

                             ****ORCA TERMINATED NORMALLY****
TOTAL RUN TIME: 0 days 1 hours 46 minutes 37 seconds 449 msec
