                         Program Version 5.0.0 -  RELEASE  -
|  1> ! RI-MP2 cc-pVTZ cc-pVTZ/c TightSCF KeepDens NoKeepInts
|  2>
|  3> *xyz  0  1
|  4>     C   -11.2244410   15.3354997    6.6097332
|  5>     C   -10.4123471   14.0873831    6.9705889
|  6>     O    -9.3028236   13.9580809    6.0750255
|  7>     C    -8.3967893   12.8799373    6.0808734
|  8>     O    -8.3300391   12.2284466    7.0931721
|  9>     C    -7.3078532   12.9881623    5.0635985
| 10>     C    -7.4453705   13.4901007    3.8548862
| 11>     C    -8.6741129   13.8328211    3.1050135
| 12>     N    -6.3556046   13.5456357    3.0180625
| 13>     C    -5.2500264   12.8188497    3.1986459
| 14>     S    -3.9698056   12.6911229    2.1187318
| 15>     N    -5.1049394   12.3378668    4.5159409
| 16>     C    -6.0465859   12.4737290    5.5721951
| 17>     C    -5.3481247   13.4493366    6.4748082
| 18>     C    -5.0102252   13.0547111    7.7957517
| 19>     C    -4.3595932   14.0140439    8.6457522
| 20>     C    -3.9660317   15.2993476    8.1581400
| 21>     C    -4.3146124   15.6690209    6.8519567
| 22>     O    -4.0445999   16.8607612    6.3105717
| 23>     C    -5.0252388   14.7857657    6.0243235
| 24>     H   -10.5730649   16.2157497    6.5460197
| 25>     H   -11.9863169   15.5325573    7.3738686
| 26>     H   -11.7342533   15.1021642    5.6669499
| 27>     H    -9.9785816   14.0836791    7.9780726
| 28>     H   -10.9197874   13.1192168    6.8792172
| 29>     H    -8.7647292   13.0345220    2.3582269
| 30>     H    -8.6169543   14.8296758    2.6509174
| 31>     H    -9.5584405   13.8482069    3.7538036
| 32>     H    -6.5865188   13.8829924    2.0913268
| 33>     H    -4.2007652   11.9811588    4.8008930
| 34>     H    -6.2041392   11.5012526    6.0545396
| 35>     H    -5.4108855   12.1156113    8.1658312
| 36>     H    -4.1310069   13.7968871    9.6849766
| 37>     H    -3.3832801   15.9797573    8.7720153
| 38>     H    -4.3694192   16.7863935    5.3964102
| 39>     H    -5.4594080   15.1219593    5.0873779
| 40> *
| 41>
| 42>                          ****END OF INPUT****

CARTESIAN COORDINATES (ANGSTROEM)
---------------------------------
  C    -11.224441   15.335500    6.609733
  C    -10.412347   14.087383    6.970589
  O     -9.302824   13.958081    6.075025
  C     -8.396789   12.879937    6.080873
  O     -8.330039   12.228447    7.093172
  C     -7.307853   12.988162    5.063599
  C     -7.445371   13.490101    3.854886
  C     -8.674113   13.832821    3.105014
  N     -6.355605   13.545636    3.018063
  C     -5.250026   12.818850    3.198646
  S     -3.969806   12.691123    2.118732
  N     -5.104939   12.337867    4.515941
  C     -6.046586   12.473729    5.572195
  C     -5.348125   13.449337    6.474808
  C     -5.010225   13.054711    7.795752
  C     -4.359593   14.014044    8.645752
  C     -3.966032   15.299348    8.158140
  C     -4.314612   15.669021    6.851957
  O     -4.044600   16.860761    6.310572
  C     -5.025239   14.785766    6.024323
  H    -10.573065   16.215750    6.546020
  H    -11.986317   15.532557    7.373869
  H    -11.734253   15.102164    5.666950
  H     -9.978582   14.083679    7.978073
  H    -10.919787   13.119217    6.879217
  H     -8.764729   13.034522    2.358227
  H     -8.616954   14.829676    2.650917
  H     -9.558440   13.848207    3.753804
  H     -6.586519   13.882992    2.091327
  H     -4.200765   11.981159    4.800893
  H     -6.204139   11.501253    6.054540
  H     -5.410886   12.115611    8.165831
  H     -4.131007   13.796887    9.684977
  H     -3.383280   15.979757    8.772015
  H     -4.369419   16.786393    5.396410
  H     -5.459408   15.121959    5.087378

 Total Charge           Charge          ....    0
 Multiplicity           Mult            ....    1
 Number of Electrons    NEL             ....  154
 Basis Dimension        Dim             ....  828

ORBITAL ENERGIES
----------------

  NO   OCC          E(Eh)            E(eV)
   0   2.0000     -91.894466     -2500.5755
   1   2.0000     -20.593121      -560.3673
   2   2.0000     -20.588130      -560.2315
   3   2.0000     -20.557361      -559.3942
   4   2.0000     -15.635059      -425.4516
   5   2.0000     -15.600482      -424.5107
   6   2.0000     -11.400472      -310.2226
   7   2.0000     -11.392500      -310.0057
   8   2.0000     -11.327174      -308.2281
   9   2.0000     -11.310351      -307.7703
  10   2.0000     -11.295350      -307.3621
  11   2.0000     -11.294260      -307.3324
  12   2.0000     -11.264339      -306.5183
  13   2.0000     -11.260535      -306.4147
  14   2.0000     -11.260298      -306.4083
  15   2.0000     -11.257493      -306.3320
  16   2.0000     -11.240195      -305.8613
  17   2.0000     -11.237663      -305.7924
  18   2.0000     -11.237589      -305.7903
  19   2.0000     -11.237237      -305.7808
  20   2.0000      -8.898309      -242.1353
  21   2.0000      -6.579756      -179.0443
  22   2.0000      -6.577856      -178.9926
  23   2.0000      -6.577251      -178.9761
  24   2.0000      -1.451189       -39.4888
  25   2.0000      -1.423243       -38.7284
  26   2.0000      -1.364656       -37.1342
  27   2.0000      -1.357189       -36.9310
  28   2.0000      -1.253642       -34.1133
  29   2.0000      -1.155829       -31.4517
  30   2.0000      -1.126944       -30.6657
  31   2.0000      -1.044226       -28.4148
  32   2.0000      -1.041827       -28.3496
  33   2.0000      -1.013988       -27.5920
  34   2.0000      -1.000302       -27.2196
  35   2.0000      -0.986690       -26.8492
  36   2.0000      -0.928707       -25.2714
  37   2.0000      -0.894172       -24.3317
  38   2.0000      -0.861144       -23.4329
  39   2.0000      -0.846083       -23.0231
  40   2.0000      -0.828443       -22.5431
  41   2.0000      -0.806882       -21.9564
  42   2.0000      -0.756666       -20.5899
  43   2.0000      -0.752520       -20.4771
  44   2.0000      -0.737257       -20.0618
  45   2.0000      -0.703345       -19.1390
  46   2.0000      -0.689613       -18.7653
  47   2.0000      -0.678524       -18.4636
  48   2.0000      -0.675015       -18.3681
  49   2.0000      -0.667959       -18.1761
  50   2.0000      -0.657347       -17.8873
  51   2.0000      -0.648585       -17.6489
  52   2.0000      -0.632815       -17.2198
  53   2.0000      -0.626541       -17.0490
  54   2.0000      -0.601603       -16.3704
  55   2.0000      -0.597606       -16.2617
  56   2.0000      -0.595917       -16.2157
  57   2.0000      -0.589427       -16.0391
  58   2.0000      -0.576808       -15.6958
  59   2.0000      -0.570517       -15.5246
  60   2.0000      -0.564664       -15.3653
  61   2.0000      -0.559923       -15.2363
  62   2.0000      -0.547999       -14.9118
  63   2.0000      -0.528969       -14.3940
  64   2.0000      -0.517779       -14.0895
  65   2.0000      -0.513214       -13.9653
  66   2.0000      -0.505216       -13.7476
  67   2.0000      -0.501409       -13.6440
  68   2.0000      -0.479156       -13.0385
  69   2.0000      -0.462461       -12.5842
  70   2.0000      -0.451531       -12.2868
  71   2.0000      -0.449977       -12.2445
  72   2.0000      -0.363676        -9.8961
  73   2.0000      -0.340128        -9.2553
  74   2.0000      -0.328560        -8.9406
  75   2.0000      -0.316509        -8.6126
  76   2.0000      -0.313791        -8.5387
  77   0.0000       0.070244         1.9114
  78   0.0000       0.104987         2.8568
  79   0.0000       0.111645         3.0380
  80   0.0000       0.130868         3.5611
  81   0.0000       0.140541         3.8243

MULLIKEN ATOMIC CHARGES
-----------------------
   0 C :   -0.260338
   1 C :    0.030198
   2 O :   -0.373804
   3 C :    0.419454
   4 O :   -0.399773
   5 C :   -0.130518
   6 C :    0.121306
   7 C :   -0.309163
   8 N :   -0.092162
   9 C :    0.183267
  10 S :   -0.430765
  11 N :   -0.193368
  12 C :    0.068677
  13 C :    0.027697
  14 C :   -0.189554
  15 C :   -0.105993
  16 C :   -0.258399
  17 C :    0.311466
  18 O :   -0.347172
  19 C :   -0.312069
  20 H :    0.106053
  21 H :    0.102783
  22 H :    0.090979
  23 H :    0.107963
  24 H :    0.084812
  25 H :    0.120895
  26 H :    0.109204
  27 H :    0.126530
  28 H :    0.187370
  29 H :    0.184664
  30 H :    0.158853
  31 H :    0.164849
  32 H :    0.162679
  33 H :    0.160297
  34 H :    0.249373
  35 H :    0.123709
Sum of atomic charges:   -0.0000000

LOEWDIN ATOMIC CHARGES
----------------------
   0 C :    0.112620
   1 C :   -0.035566
   2 O :    0.266692
   3 C :   -0.376963
   4 O :    0.135564
   5 C :   -0.094664
   6 C :   -0.101628
   7 C :    0.129632
   8 N :    0.418599
   9 C :   -0.427054
  10 S :   -0.057683
  11 N :    0.403736
  12 C :   -0.108809
  13 C :   -0.024669
  14 C :    0.016045
  15 C :    0.060642
  16 C :    0.016228
  17 C :   -0.212106
  18 O :    0.404727
  19 C :    0.011414
  20 H :   -0.022376
  21 H :   -0.020865
  22 H :   -0.028085
  23 H :   -0.031835
  24 H :   -0.035417
  25 H :   -0.007356
  26 H :   -0.013417
  27 H :   -0.012479
  28 H :   -0.041246
  29 H :   -0.059859
  30 H :    0.005688
  31 H :   -0.030416
  32 H :   -0.026898
  33 H :   -0.028734
  34 H :   -0.143384
  35 H :   -0.040076

  Mayer bond orders larger than 0.100000
B(  0-C ,  1-C ) :   0.9685 B(  0-C , 20-H ) :   0.9734 B(  0-C , 21-H ) :   0.9781
B(  0-C , 22-H ) :   0.9806 B(  1-C ,  2-O ) :   0.8911 B(  1-C , 23-H ) :   0.9782
B(  1-C , 24-H ) :   0.9797 B(  2-O ,  3-C ) :   1.1330 B(  3-C ,  4-O ) :   2.0067
B(  3-C ,  5-C ) :   1.0332 B(  5-C ,  6-C ) :   1.6650 B(  5-C , 12-C ) :   0.9621
B(  6-C ,  7-C ) :   0.9567 B(  6-C ,  8-N ) :   1.1050 B(  7-C , 25-H ) :   0.9661
B(  7-C , 26-H ) :   0.9720 B(  7-C , 27-H ) :   0.9742 B(  8-N ,  9-C ) :   1.2126
B(  8-N , 28-H ) :   0.9584 B(  9-C , 10-S ) :   1.6009 B(  9-C , 11-N ) :   1.2627
B( 11-N , 12-C ) :   0.9973 B( 11-N , 29-H ) :   0.9603 B( 12-C , 13-C ) :   0.9460
B( 12-C , 30-H ) :   0.9955 B( 13-C , 14-C ) :   1.3972 B( 13-C , 19-C ) :   1.3122
B( 14-C , 15-C ) :   1.3682 B( 14-C , 31-H ) :   0.9588 B( 15-C , 16-C ) :   1.4133
B( 15-C , 32-H ) :   0.9714 B( 16-C , 17-C ) :   1.3332 B( 16-C , 33-H ) :   0.9668
B( 17-C , 18-O ) :   1.1326 B( 17-C , 19-C ) :   1.3751 B( 18-O , 34-H ) :   0.9691
B( 19-C , 35-H ) :   0.9791

MP2 TOTAL ENERGY:    -1274.302324155 Eh
FINAL SINGLE POINT ENERGY     -1274.302324155404

DIPOLE MOMENT
-------------
                                X             Y             Z
Electronic contribution:     16.09373      -6.00814      -5.74968
Nuclear contribution   :    -18.33145       6.58679       5.83142
                        -----------------------------------------
Total Dipole Moment    :     -2.23772       0.57865       0.08173
                        -----------------------------------------
Magnitude (a.u.)       :      2.31277
Magnitude (Debye)      :      5.87859

Rotational constants in cm-1:     0.011034     0.008728     0.006155
Rotational constants in MHz :   330.789722   261.671205   184.512016

                             ****ORCA TERMINATED NORMALLY****
TOTAL RUN TIME: 0 days 2 hours 7 minutes 20 seconds 100 msec
