                         Program Version 5.0.0 -  RELEASE  -
|  1> ! RI-MP2 cc-pVTZ cc-pVTZ/c TightSCF KeepDens NoKeepInts
|  2>
|  3> %pointcharges "srfp_output"
|  4>
|  5> *xyz  0  1
|  6>     C   -11.2244410   15.3354997    6.6097332
|  7>     C   -10.4123471   14.0873831    6.9705889
|  8>     O    -9.3028236   13.9580809    6.0750255
|  9>     C    -8.3967893   12.8799373    6.0808734
| 10>     O    -8.3300391   12.2284466    7.0931721
| 11>     C    -7.3078532   12.9881623    5.0635985
| 12>     C    -7.4453705   13.4901007    3.8548862
| 13>     C    -8.6741129   13.8328211    3.1050135
| 14>     N    -6.3556046   13.5456357    3.0180625
| 15>     C    -5.2500264   12.8188497    3.1986459
| 16>     S    -3.9698056   12.6911229    2.1187318
| 17>     N    -5.1049394   12.3378668    4.5159409
| 18>     C    -6.0465859   12.4737290    5.5721951
| 19>     C    -5.3481247   13.4493366    6.4748082
| 20>     C    -5.0102252   13.0547111    7.7957517
| 21>     C    -4.3595932   14.0140439    8.6457522
| 22>     C    -3.9660317   15.2993476    8.1581400
| 23>     C    -4.3146124   15.6690209    6.8519567
| 24>     O    -4.0445999   16.8607612    6.3105717
| 25>     C    -5.0252388   14.7857657    6.0243235
| 26>     H   -10.5730649   16.2157497    6.5460197
| 27>     H   -11.9863169   15.5325573    7.3738686
| 28>     H   -11.7342533   15.1021642    5.6669499
| 29>     H    -9.9785816   14.0836791    7.9780726
| 30>     H   -10.9197874   13.1192168    6.8792172
| 31>     H    -8.7647292   13.0345220    2.3582269
| 32>     H    -8.6169543   14.8296758    2.6509174
| 33>     H    -9.5584405   13.8482069    3.7538036
| 34>     H    -6.5865188   13.8829924    2.0913268
| 35>     H    -4.2007652   11.9811588    4.8008930
| 36>     H    -6.2041392   11.5012526    6.0545396
| 37>     H    -5.4108855   12.1156113    8.1658312
| 38>     H    -4.1310069   13.7968871    9.6849766
| 39>     H    -3.3832801   15.9797573    8.7720153
| 40>     H    -4.3694192   16.7863935    5.3964102
| 41>     H    -5.4594080   15.1219593    5.0873779
| 42> *
| 43>
| 44>                          ****END OF INPUT****

CARTESIAN COORDINATES (ANGSTROEM)
---------------------------------
  C    -11.224441   15.335500    6.609733
  C    -10.412347   14.087383    6.970589
  O     -9.302824   13.958081    6.075025
  C     -8.396789   12.879937    6.080873
  O     -8.330039   12.228447    7.093172
  C     -7.307853   12.988162    5.063599
  C     -7.445371   13.490101    3.854886
  C     -8.674113   13.832821    3.105014
  N     -6.355605   13.545636    3.018063
  C     -5.250026   12.818850    3.198646
  S     -3.969806   12.691123    2.118732
  N     -5.104939   12.337867    4.515941
  C     -6.046586   12.473729    5.572195
  C     -5.348125   13.449337    6.474808
  C     -5.010225   13.054711    7.795752
  C     -4.359593   14.014044    8.645752
  C     -3.966032   15.299348    8.158140
  C     -4.314612   15.669021    6.851957
  O     -4.044600   16.860761    6.310572
  C     -5.025239   14.785766    6.024323
  H    -10.573065   16.215750    6.546020
  H    -11.986317   15.532557    7.373869
  H    -11.734253   15.102164    5.666950
  H     -9.978582   14.083679    7.978073
  H    -10.919787   13.119217    6.879217
  H     -8.764729   13.034522    2.358227
  H     -8.616954   14.829676    2.650917
  H     -9.558440   13.848207    3.753804
  H     -6.586519   13.882992    2.091327
  H     -4.200765   11.981159    4.800893
  H     -6.204139   11.501253    6.054540
  H     -5.410886   12.115611    8.165831
  H     -4.131007   13.796887    9.684977
  H     -3.383280   15.979757    8.772015
  H     -4.369419   16.786393    5.396410
  H     -5.459408   15.121959    5.087378

 Total Charge           Charge          ....    0
 Multiplicity           Mult            ....    1
 Number of Electrons    NEL             ....  154
 Basis Dimension        Dim             ....  828

ORBITAL ENERGIES
----------------

  NO   OCC          E(Eh)            E(eV)
   0   2.0000     -91.661895     -2494.2470
   1   2.0000     -20.330780      -553.2286
   2   2.0000     -20.319701      -552.9272
   3   2.0000     -20.304299      -552.5081
   4   2.0000     -15.366073      -418.1321
   5   2.0000     -15.342107      -417.4799
   6   2.0000     -11.147095      -303.3279
   7   2.0000     -11.146615      -303.3148
   8   2.0000     -11.054714      -300.8141
   9   2.0000     -11.047970      -300.6305
  10   2.0000     -11.027675      -300.0783
  11   2.0000     -11.014350      -299.7157
  12   2.0000     -10.996385      -299.2268
  13   2.0000     -10.992891      -299.1318
  14   2.0000     -10.988349      -299.0082
  15   2.0000     -10.975789      -298.6664
  16   2.0000     -10.974616      -298.6345
  17   2.0000     -10.973159      -298.5948
  18   2.0000     -10.969992      -298.5086
  19   2.0000     -10.952382      -298.0295
  20   2.0000      -8.667478      -235.8541
  21   2.0000      -6.349403      -172.7760
  22   2.0000      -6.347460      -172.7232
  23   2.0000      -6.347059      -172.7123
  24   2.0000      -1.193466       -32.4758
  25   2.0000      -1.161574       -31.6080
  26   2.0000      -1.098618       -29.8949
  27   2.0000      -1.095343       -29.8058
  28   2.0000      -0.987811       -26.8797
  29   2.0000      -0.891078       -24.2475
  30   2.0000      -0.863510       -23.4973
  31   2.0000      -0.775311       -21.0973
  32   2.0000      -0.765382       -20.8271
  33   2.0000      -0.739398       -20.1200
  34   2.0000      -0.737352       -20.0644
  35   2.0000      -0.732293       -19.9267
  36   2.0000      -0.663155       -18.0454
  37   2.0000      -0.622402       -16.9364
  38   2.0000      -0.595522       -16.2050
  39   2.0000      -0.581830       -15.8324
  40   2.0000      -0.558588       -15.1999
  41   2.0000      -0.541274       -14.7288
  42   2.0000      -0.492601       -13.4044
  43   2.0000      -0.487379       -13.2623
  44   2.0000      -0.472605       -12.8602
  45   2.0000      -0.437207       -11.8970
  46   2.0000      -0.430882       -11.7249
  47   2.0000      -0.413188       -11.2434
  48   2.0000      -0.405898       -11.0451
  49   2.0000      -0.399748       -10.8777
  50   2.0000      -0.392847       -10.6899
  51   2.0000      -0.379524       -10.3274
  52   2.0000      -0.364983        -9.9317
  53   2.0000      -0.352068        -9.5803
  54   2.0000      -0.341296        -9.2871
  55   2.0000      -0.329828        -8.9751
  56   2.0000      -0.324968        -8.8428
  57   2.0000      -0.310323        -8.4443
  58   2.0000      -0.308976        -8.4077
  59   2.0000      -0.296826        -8.0770
  60   2.0000      -0.292213        -7.9515
  61   2.0000      -0.279868        -7.6156
  62   2.0000      -0.277124        -7.5409
  63   2.0000      -0.269324        -7.3287
  64   2.0000      -0.255217        -6.9448
  65   2.0000      -0.250164        -6.8073
  66   2.0000      -0.240735        -6.5507
  67   2.0000      -0.230678        -6.2771
  68   2.0000      -0.216311        -5.8861
  69   2.0000      -0.202162        -5.5011
  70   2.0000      -0.190826        -5.1926
  71   2.0000      -0.179008        -4.8711
  72   2.0000      -0.107718        -2.9312
  73   2.0000      -0.105201        -2.8627
  74   2.0000      -0.087466        -2.3801
  75   2.0000      -0.064325        -1.7504
  76   2.0000      -0.055167        -1.5012
  77   0.0000       0.329631         8.9697
  78   0.0000       0.369038        10.0420
  79   0.0000       0.399565        10.8727
  80   0.0000       0.409268        11.1368
  81   0.0000       0.417510        11.3610

MULLIKEN ATOMIC CHARGES
-----------------------
   0 C :   -0.260340
   1 C :    0.032651
   2 O :   -0.368015
   3 C :    0.500712
   4 O :   -0.538528
   5 C :   -0.136900
   6 C :    0.129669
   7 C :   -0.297333
   8 N :   -0.100484
   9 C :    0.348333
  10 S :   -0.724924
  11 N :   -0.213250
  12 C :    0.082800
  13 C :    0.013154
  14 C :   -0.215848
  15 C :   -0.158978
  16 C :   -0.280327
  17 C :    0.300101
  18 O :   -0.435451
  19 C :   -0.339640
  20 H :    0.097362
  21 H :    0.113581
  22 H :    0.104401
  23 H :    0.099651
  24 H :    0.099248
  25 H :    0.132877
  26 H :    0.129329
  27 H :    0.131430
  28 H :    0.250966
  29 H :    0.240064
  30 H :    0.178023
  31 H :    0.193357
  32 H :    0.198808
  33 H :    0.179822
  34 H :    0.326360
  35 H :    0.187320
Sum of atomic charges:    0.0000000

LOEWDIN ATOMIC CHARGES
----------------------
   0 C :    0.117457
   1 C :   -0.031770
   2 O :    0.274264
   3 C :   -0.347812
   4 O :    0.049723
   5 C :   -0.093708
   6 C :   -0.079456
   7 C :    0.143337
   8 N :    0.441648
   9 C :   -0.382235
  10 S :   -0.243446
  11 N :    0.423662
  12 C :   -0.101523
  13 C :   -0.032488
  14 C :    0.011567
  15 C :    0.050286
  16 C :    0.004795
  17 C :   -0.228014
  18 O :    0.369362
  19 C :    0.017697
  20 H :   -0.024262
  21 H :   -0.015606
  22 H :   -0.023013
  23 H :   -0.034921
  24 H :   -0.029459
  25 H :    0.001693
  26 H :   -0.002768
  27 H :   -0.009566
  28 H :   -0.007574
  29 H :   -0.034034
  30 H :    0.011939
  31 H :   -0.024325
  32 H :   -0.017109
  33 H :   -0.023387
  34 H :   -0.106856
  35 H :   -0.024096

  Mayer bond orders larger than 0.100000
B(  0-C ,  1-C ) :   0.9719 B(  0-C , 20-H ) :   0.9744 B(  0-C , 21-H ) :   0.9771
B(  0-C , 22-H ) :   0.9780 B(  1-C ,  2-O ) :   0.8714 B(  1-C , 23-H ) :   0.9787
B(  1-C , 24-H ) :   0.9754 B(  2-O ,  3-C ) :   1.1727 B(  3-C ,  4-O ) :   1.9194
B(  3-C ,  5-C ) :   1.0717 B(  5-C ,  6-C ) :   1.6488 B(  5-C , 12-C ) :   0.9543
B(  6-C ,  7-C ) :   0.9695 B(  6-C ,  8-N ) :   1.1060 B(  7-C , 25-H ) :   0.9589
B(  7-C , 26-H ) :   0.9667 B(  7-C , 27-H ) :   0.9716 B(  8-N ,  9-C ) :   1.3165
B(  8-N , 28-H ) :   0.9256 B(  9-C , 10-S ) :   1.2541 B(  9-C , 11-N ) :   1.3538
B( 11-N , 12-C ) :   0.9899 B( 11-N , 29-H ) :   0.9342 B( 12-C , 13-C ) :   0.9412
B( 12-C , 30-H ) :   0.9948 B( 13-C , 14-C ) :   1.3695 B( 13-C , 19-C ) :   1.2818
B( 14-C , 15-C ) :   1.3679 B( 14-C , 31-H ) :   0.9574 B( 15-C , 16-C ) :   1.4041
B( 15-C , 32-H ) :   0.9600 B( 16-C , 17-C ) :   1.3245 B( 16-C , 33-H ) :   0.9600
B( 17-C , 18-O ) :   1.1198 B( 17-C , 19-C ) :   1.3996 B( 18-O , 34-H ) :   0.9164
B( 19-C , 35-H ) :   0.9624

MP2 TOTAL ENERGY:    -1274.429416682 Eh
FINAL SINGLE POINT ENERGY     -1274.429416681807

DIPOLE MOMENT
-------------
                                X             Y             Z
Electronic contribution:     14.84520      -5.76648      -5.86897
Nuclear contribution   :    -18.33145       6.58679       5.83142
                        -----------------------------------------
Total Dipole Moment    :     -3.48625       0.82031      -0.03756
                        -----------------------------------------
Magnitude (a.u.)       :      3.58166
Magnitude (Debye)      :      9.10385

Rotational constants in cm-1:     0.011034     0.008728     0.006155
Rotational constants in MHz :   330.789722   261.671205   184.512016

                             ****ORCA TERMINATED NORMALLY****
TOTAL RUN TIME: 0 days 2 hours 11 minutes 12 seconds 888 msec
