                         Program Version 5.0.0 -  RELEASE  -
|  1> ! RI-MP2 cc-pVTZ cc-pVTZ/c TightSCF KeepDens NoKeepInts
|  2>
|  3> *xyz  0  1
|  4>     C     0.0730026    6.1577030  -12.0900473
|  5>     C     0.2678268    4.7002808  -12.5050491
|  6>     O     1.4996476    4.7991737  -13.3296039
|  7>     C     2.2441865    3.7285700  -13.6733041
|  8>     O     2.1636143    2.6715227  -13.1217210
|  9>     C     2.9848133    3.8964447  -14.9848686
| 10>     C     2.7682435    4.7385894  -15.9439689
| 11>     C     1.7385892    5.7534412  -16.0962212
| 12>     N     3.4447968    4.5691568  -17.1676007
| 13>     C     4.3183397    3.5622348  -17.5217331
| 14>     S     4.8412264    3.1108397  -18.9961886
| 15>     N     4.5899814    2.7692239  -16.4889419
| 16>     C     4.1007697    2.9095717  -15.0848068
| 17>     C     5.2236021    3.2565257  -14.1073712
| 18>     C     5.5209317    2.5440645  -12.9688770
| 19>     C     6.4666509    2.9361110  -11.9854230
| 20>     C     7.2247649    4.0566595  -12.2365515
| 21>     C     6.9234720    4.8642291  -13.3301299
| 22>     O     7.6665683    5.8978282  -13.5514499
| 23>     C     5.9701519    4.4297843  -14.2412015
| 24>     H     0.7266516    6.3671723  -11.2344383
| 25>     H    -0.9930597    6.3088158  -11.8806027
| 26>     H     0.4570398    6.8139225  -12.8806679
| 27>     H     0.3771136    4.1960716  -11.5370506
| 28>     H    -0.5632407    4.2617188  -13.0708933
| 29>     H     0.8510214    5.1542814  -15.8586978
| 30>     H     1.6415344    6.2913513  -17.0472326
| 31>     H     1.8888959    6.4272951  -15.2438629
| 32>     H     2.9975377    5.0070902  -17.9639298
| 33>     H     5.1508181    1.9851841  -16.7999397
| 34>     H     3.7561271    1.9056043  -14.8082918
| 35>     H     4.9725566    1.6307750  -12.7577065
| 36>     H     6.5207859    2.4305489  -11.0258020
| 37>     H     8.0245311    4.4040061  -11.5891560
| 38>     H     8.3255903    5.9604218  -12.8383569
| 39>     H     5.6788553    5.0962676  -15.0476396
| 40> *
| 41>
| 42>                          ****END OF INPUT****

CARTESIAN COORDINATES (ANGSTROEM)
---------------------------------
  C      0.073003    6.157703  -12.090047
  C      0.267827    4.700281  -12.505049
  O      1.499648    4.799174  -13.329604
  C      2.244187    3.728570  -13.673304
  O      2.163614    2.671523  -13.121721
  C      2.984813    3.896445  -14.984869
  C      2.768244    4.738589  -15.943969
  C      1.738589    5.753441  -16.096221
  N      3.444797    4.569157  -17.167601
  C      4.318340    3.562235  -17.521733
  S      4.841226    3.110840  -18.996189
  N      4.589981    2.769224  -16.488942
  C      4.100770    2.909572  -15.084807
  C      5.223602    3.256526  -14.107371
  C      5.520932    2.544065  -12.968877
  C      6.466651    2.936111  -11.985423
  C      7.224765    4.056660  -12.236551
  C      6.923472    4.864229  -13.330130
  O      7.666568    5.897828  -13.551450
  C      5.970152    4.429784  -14.241202
  H      0.726652    6.367172  -11.234438
  H     -0.993060    6.308816  -11.880603
  H      0.457040    6.813923  -12.880668
  H      0.377114    4.196072  -11.537051
  H     -0.563241    4.261719  -13.070893
  H      0.851021    5.154281  -15.858698
  H      1.641534    6.291351  -17.047233
  H      1.888896    6.427295  -15.243863
  H      2.997538    5.007090  -17.963930
  H      5.150818    1.985184  -16.799940
  H      3.756127    1.905604  -14.808292
  H      4.972557    1.630775  -12.757706
  H      6.520786    2.430549  -11.025802
  H      8.024531    4.404006  -11.589156
  H      8.325590    5.960422  -12.838357
  H      5.678855    5.096268  -15.047640

 Total Charge           Charge          ....    0
 Multiplicity           Mult            ....    1
 Number of Electrons    NEL             ....  154
 Basis Dimension        Dim             ....  828

ORBITAL ENERGIES
----------------

  NO   OCC          E(Eh)            E(eV)
   0   2.0000     -91.882315     -2500.2449
   1   2.0000     -20.604486      -560.6766
   2   2.0000     -20.595229      -560.4247
   3   2.0000     -20.547488      -559.1256
   4   2.0000     -15.614774      -424.8996
   5   2.0000     -15.595412      -424.3727
   6   2.0000     -11.391233      -309.9712
   7   2.0000     -11.368751      -309.3594
   8   2.0000     -11.318413      -307.9897
   9   2.0000     -11.309582      -307.7494
  10   2.0000     -11.302365      -307.5530
  11   2.0000     -11.298786      -307.4556
  12   2.0000     -11.252870      -306.2062
  13   2.0000     -11.247834      -306.0691
  14   2.0000     -11.246580      -306.0350
  15   2.0000     -11.244348      -305.9743
  16   2.0000     -11.235463      -305.7325
  17   2.0000     -11.230928      -305.6091
  18   2.0000     -11.224991      -305.4475
  19   2.0000     -11.223293      -305.4013
  20   2.0000      -8.888553      -241.8698
  21   2.0000      -6.570300      -178.7869
  22   2.0000      -6.568044      -178.7256
  23   2.0000      -6.567520      -178.7113
  24   2.0000      -1.460466       -39.7413
  25   2.0000      -1.443514       -39.2800
  26   2.0000      -1.365953       -37.1695
  27   2.0000      -1.341229       -36.4967
  28   2.0000      -1.232294       -33.5324
  29   2.0000      -1.162163       -31.6241
  30   2.0000      -1.131310       -30.7845
  31   2.0000      -1.055014       -28.7084
  32   2.0000      -1.049702       -28.5638
  33   2.0000      -1.012649       -27.5556
  34   2.0000      -1.001357       -27.2483
  35   2.0000      -0.985723       -26.8229
  36   2.0000      -0.922260       -25.0960
  37   2.0000      -0.885116       -24.0852
  38   2.0000      -0.846986       -23.0477
  39   2.0000      -0.842813       -22.9341
  40   2.0000      -0.832562       -22.6552
  41   2.0000      -0.820628       -22.3304
  42   2.0000      -0.763737       -20.7823
  43   2.0000      -0.741069       -20.1655
  44   2.0000      -0.733537       -19.9606
  45   2.0000      -0.694649       -18.9024
  46   2.0000      -0.685889       -18.6640
  47   2.0000      -0.679619       -18.4934
  48   2.0000      -0.673999       -18.3405
  49   2.0000      -0.661419       -17.9981
  50   2.0000      -0.651769       -17.7355
  51   2.0000      -0.643340       -17.5062
  52   2.0000      -0.639919       -17.4131
  53   2.0000      -0.615220       -16.7410
  54   2.0000      -0.609798       -16.5935
  55   2.0000      -0.604360       -16.4455
  56   2.0000      -0.601329       -16.3630
  57   2.0000      -0.581684       -15.8284
  58   2.0000      -0.572433       -15.5767
  59   2.0000      -0.568336       -15.4652
  60   2.0000      -0.565541       -15.3891
  61   2.0000      -0.550141       -14.9701
  62   2.0000      -0.534564       -14.5462
  63   2.0000      -0.531830       -14.4718
  64   2.0000      -0.511280       -13.9126
  65   2.0000      -0.509660       -13.8685
  66   2.0000      -0.502268       -13.6674
  67   2.0000      -0.495222       -13.4757
  68   2.0000      -0.479299       -13.0424
  69   2.0000      -0.471033       -12.8175
  70   2.0000      -0.460512       -12.5312
  71   2.0000      -0.453437       -12.3387
  72   2.0000      -0.356072        -9.6892
  73   2.0000      -0.346263        -9.4223
  74   2.0000      -0.324367        -8.8265
  75   2.0000      -0.315871        -8.5953
  76   2.0000      -0.306987        -8.3535
  77   0.0000       0.088034         2.3955
  78   0.0000       0.116489         3.1698
  79   0.0000       0.121240         3.2991
  80   0.0000       0.132811         3.6140
  81   0.0000       0.138844         3.7781

MULLIKEN ATOMIC CHARGES
-----------------------
   0 C :   -0.258774
   1 C :    0.035752
   2 O :   -0.360272
   3 C :    0.428331
   4 O :   -0.404877
   5 C :   -0.172701
   6 C :    0.181442
   7 C :   -0.317579
   8 N :   -0.143643
   9 C :    0.202372
  10 S :   -0.449511
  11 N :   -0.176250
  12 C :    0.036692
  13 C :    0.016306
  14 C :   -0.139119
  15 C :   -0.167128
  16 C :   -0.245950
  17 C :    0.290458
  18 O :   -0.329617
  19 C :   -0.246143
  20 H :    0.099657
  21 H :    0.090751
  22 H :    0.096176
  23 H :    0.121971
  24 H :    0.104358
  25 H :    0.117249
  26 H :    0.118757
  27 H :    0.128734
  28 H :    0.178367
  29 H :    0.189812
  30 H :    0.159802
  31 H :    0.145678
  32 H :    0.165647
  33 H :    0.114648
  34 H :    0.244682
  35 H :    0.143925
Sum of atomic charges:    0.0000000

LOEWDIN ATOMIC CHARGES
----------------------
   0 C :    0.103500
   1 C :    0.034195
   2 O :    0.291632
   3 C :   -0.452465
   4 O :    0.141085
   5 C :   -0.094188
   6 C :   -0.107107
   7 C :    0.128622
   8 N :    0.401138
   9 C :   -0.506124
  10 S :   -0.011335
  11 N :    0.409025
  12 C :   -0.030557
  13 C :   -0.046304
  14 C :    0.016382
  15 C :    0.043995
  16 C :   -0.004861
  17 C :   -0.254861
  18 O :    0.451244
  19 C :    0.022586
  20 H :   -0.022400
  21 H :   -0.027680
  22 H :   -0.028223
  23 H :   -0.023212
  24 H :   -0.031915
  25 H :   -0.002374
  26 H :   -0.013773
  27 H :   -0.005587
  28 H :   -0.061299
  29 H :   -0.069782
  30 H :   -0.003451
  31 H :   -0.028529
  32 H :   -0.020217
  33 H :   -0.034899
  34 H :   -0.133978
  35 H :   -0.028281

  Mayer bond orders larger than 0.100000
B(  0-C ,  1-C ) :   0.9542 B(  0-C , 20-H ) :   0.9842 B(  0-C , 21-H ) :   0.9796
B(  0-C , 22-H ) :   0.9781 B(  1-C ,  2-O ) :   0.8612 B(  1-C , 23-H ) :   0.9823
B(  1-C , 24-H ) :   0.9780 B(  2-O ,  3-C ) :   1.1892 B(  3-C ,  4-O ) :   2.0157
B(  3-C ,  5-C ) :   1.0083 B(  5-C ,  6-C ) :   1.6802 B(  5-C , 12-C ) :   0.9682
B(  6-C ,  7-C ) :   0.9470 B(  6-C ,  8-N ) :   1.1087 B(  7-C , 25-H ) :   0.9665
B(  7-C , 26-H ) :   0.9920 B(  7-C , 27-H ) :   0.9681 B(  8-N ,  9-C ) :   1.1636
B(  8-N , 28-H ) :   0.9657 B(  9-C , 10-S ) :   1.6212 B(  9-C , 11-N ) :   1.3315
B( 11-N , 12-C ) :   0.9897 B( 11-N , 29-H ) :   0.9457 B( 12-C , 13-C ) :   0.9512
B( 12-C , 30-H ) :   0.9989 B( 13-C , 14-C ) :   1.4197 B( 13-C , 19-C ) :   1.3344
B( 14-C , 15-C ) :   1.3513 B( 14-C , 31-H ) :   0.9672 B( 15-C , 16-C ) :   1.3988
B( 15-C , 32-H ) :   0.9678 B( 16-C , 17-C ) :   1.2960 B( 16-C , 33-H ) :   0.9882
B( 17-C , 18-O ) :   1.1536 B( 17-C , 19-C ) :   1.3919 B( 18-O , 34-H ) :   0.9705
B( 19-C , 35-H ) :   0.9669

MP2 TOTAL ENERGY:    -1274.292239968 Eh
FINAL SINGLE POINT ENERGY     -1274.292239967768

DIPOLE MOMENT
-------------
                                X             Y             Z
Electronic contribution:     12.19446      -7.73190     -11.42437
Nuclear contribution   :    -13.36151       8.98773      13.43010
                        -----------------------------------------
Total Dipole Moment    :     -1.16705       1.25583       2.00573
                        -----------------------------------------
Magnitude (a.u.)       :      2.63858
Magnitude (Debye)      :      6.70673

Rotational constants in cm-1:     0.010033     0.008973     0.005811
Rotational constants in MHz :   300.788328   268.994250   174.210169

                             ****ORCA TERMINATED NORMALLY****
TOTAL RUN TIME: 0 days 1 hours 59 minutes 39 seconds 717 msec
