                         Program Version 5.0.0 -  RELEASE  -
|  1> ! RI-MP2 cc-pVTZ cc-pVTZ/c TightSCF KeepDens NoKeepInts
|  2>
|  3> %pointcharges "srfp_output"
|  4>
|  5> *xyz  0  1
|  6>     C     0.0730026    6.1577030  -12.0900473
|  7>     C     0.2678268    4.7002808  -12.5050491
|  8>     O     1.4996476    4.7991737  -13.3296039
|  9>     C     2.2441865    3.7285700  -13.6733041
| 10>     O     2.1636143    2.6715227  -13.1217210
| 11>     C     2.9848133    3.8964447  -14.9848686
| 12>     C     2.7682435    4.7385894  -15.9439689
| 13>     C     1.7385892    5.7534412  -16.0962212
| 14>     N     3.4447968    4.5691568  -17.1676007
| 15>     C     4.3183397    3.5622348  -17.5217331
| 16>     S     4.8412264    3.1108397  -18.9961886
| 17>     N     4.5899814    2.7692239  -16.4889419
| 18>     C     4.1007697    2.9095717  -15.0848068
| 19>     C     5.2236021    3.2565257  -14.1073712
| 20>     C     5.5209317    2.5440645  -12.9688770
| 21>     C     6.4666509    2.9361110  -11.9854230
| 22>     C     7.2247649    4.0566595  -12.2365515
| 23>     C     6.9234720    4.8642291  -13.3301299
| 24>     O     7.6665683    5.8978282  -13.5514499
| 25>     C     5.9701519    4.4297843  -14.2412015
| 26>     H     0.7266516    6.3671723  -11.2344383
| 27>     H    -0.9930597    6.3088158  -11.8806027
| 28>     H     0.4570398    6.8139225  -12.8806679
| 29>     H     0.3771136    4.1960716  -11.5370506
| 30>     H    -0.5632407    4.2617188  -13.0708933
| 31>     H     0.8510214    5.1542814  -15.8586978
| 32>     H     1.6415344    6.2913513  -17.0472326
| 33>     H     1.8888959    6.4272951  -15.2438629
| 34>     H     2.9975377    5.0070902  -17.9639298
| 35>     H     5.1508181    1.9851841  -16.7999397
| 36>     H     3.7561271    1.9056043  -14.8082918
| 37>     H     4.9725566    1.6307750  -12.7577065
| 38>     H     6.5207859    2.4305489  -11.0258020
| 39>     H     8.0245311    4.4040061  -11.5891560
| 40>     H     8.3255903    5.9604218  -12.8383569
| 41>     H     5.6788553    5.0962676  -15.0476396
| 42> *
| 43>
| 44>                          ****END OF INPUT****

CARTESIAN COORDINATES (ANGSTROEM)
---------------------------------
  C      0.073003    6.157703  -12.090047
  C      0.267827    4.700281  -12.505049
  O      1.499648    4.799174  -13.329604
  C      2.244187    3.728570  -13.673304
  O      2.163614    2.671523  -13.121721
  C      2.984813    3.896445  -14.984869
  C      2.768244    4.738589  -15.943969
  C      1.738589    5.753441  -16.096221
  N      3.444797    4.569157  -17.167601
  C      4.318340    3.562235  -17.521733
  S      4.841226    3.110840  -18.996189
  N      4.589981    2.769224  -16.488942
  C      4.100770    2.909572  -15.084807
  C      5.223602    3.256526  -14.107371
  C      5.520932    2.544065  -12.968877
  C      6.466651    2.936111  -11.985423
  C      7.224765    4.056660  -12.236551
  C      6.923472    4.864229  -13.330130
  O      7.666568    5.897828  -13.551450
  C      5.970152    4.429784  -14.241202
  H      0.726652    6.367172  -11.234438
  H     -0.993060    6.308816  -11.880603
  H      0.457040    6.813923  -12.880668
  H      0.377114    4.196072  -11.537051
  H     -0.563241    4.261719  -13.070893
  H      0.851021    5.154281  -15.858698
  H      1.641534    6.291351  -17.047233
  H      1.888896    6.427295  -15.243863
  H      2.997538    5.007090  -17.963930
  H      5.150818    1.985184  -16.799940
  H      3.756127    1.905604  -14.808292
  H      4.972557    1.630775  -12.757706
  H      6.520786    2.430549  -11.025802
  H      8.024531    4.404006  -11.589156
  H      8.325590    5.960422  -12.838357
  H      5.678855    5.096268  -15.047640

 Total Charge           Charge          ....    0
 Multiplicity           Mult            ....    1
 Number of Electrons    NEL             ....  154
 Basis Dimension        Dim             ....  828

ORBITAL ENERGIES
----------------

  NO   OCC          E(Eh)            E(eV)
   0   2.0000     -90.662584     -2467.0543
   1   2.0000     -19.341331      -526.3044
   2   2.0000     -19.331724      -526.0429
   3   2.0000     -19.306622      -525.3599
   4   2.0000     -14.354944      -390.6179
   5   2.0000     -14.349581      -390.4720
   6   2.0000     -10.146894      -276.1110
   7   2.0000     -10.133643      -275.7504
   8   2.0000     -10.055990      -273.6374
   9   2.0000     -10.045687      -273.3570
  10   2.0000     -10.040556      -273.2174
  11   2.0000     -10.029657      -272.9208
  12   2.0000      -9.990615      -271.8585
  13   2.0000      -9.985692      -271.7245
  14   2.0000      -9.983329      -271.6602
  15   2.0000      -9.968649      -271.2607
  16   2.0000      -9.968376      -271.2533
  17   2.0000      -9.967061      -271.2175
  18   2.0000      -9.966336      -271.1978
  19   2.0000      -9.949249      -270.7328
  20   2.0000      -7.670524      -208.7256
  21   2.0000      -5.352727      -145.6551
  22   2.0000      -5.350457      -145.5933
  23   2.0000      -5.350106      -145.5838
  24   2.0000      -0.210112        -5.7174
  25   2.0000      -0.181264        -4.9324
  26   2.0000      -0.114718        -3.1216
  27   2.0000      -0.088109        -2.3976
  28   2.0000       0.024332         0.6621
  29   2.0000       0.093414         2.5419
  30   2.0000       0.126789         3.4501
  31   2.0000       0.210033         5.7153
  32   2.0000       0.223894         6.0925
  33   2.0000       0.247851         6.7444
  34   2.0000       0.254218         6.9176
  35   2.0000       0.260753         7.0954
  36   2.0000       0.335028         9.1166
  37   2.0000       0.382173        10.3995
  38   2.0000       0.412682        11.2297
  39   2.0000       0.417561        11.3624
  40   2.0000       0.426673        11.6104
  41   2.0000       0.445649        12.1267
  42   2.0000       0.496534        13.5114
  43   2.0000       0.515051        14.0152
  44   2.0000       0.525041        14.2871
  45   2.0000       0.560398        15.2492
  46   2.0000       0.564789        15.3687
  47   2.0000       0.581103        15.8126
  48   2.0000       0.586332        15.9549
  49   2.0000       0.599465        16.3123
  50   2.0000       0.610800        16.6207
  51   2.0000       0.617620        16.8063
  52   2.0000       0.621467        16.9110
  53   2.0000       0.644175        17.5289
  54   2.0000       0.651805        17.7365
  55   2.0000       0.658898        17.9295
  56   2.0000       0.667234        18.1564
  57   2.0000       0.687475        18.7071
  58   2.0000       0.688930        18.7467
  59   2.0000       0.693681        18.8760
  60   2.0000       0.701682        19.0937
  61   2.0000       0.716098        19.4860
  62   2.0000       0.718460        19.5503
  63   2.0000       0.735121        20.0037
  64   2.0000       0.745724        20.2922
  65   2.0000       0.752179        20.4678
  66   2.0000       0.760251        20.6875
  67   2.0000       0.763904        20.7869
  68   2.0000       0.779192        21.2029
  69   2.0000       0.790458        21.5095
  70   2.0000       0.797169        21.6921
  71   2.0000       0.799828        21.7644
  72   2.0000       0.887799        24.1582
  73   2.0000       0.889177        24.1957
  74   2.0000       0.905494        24.6397
  75   2.0000       0.921666        25.0798
  76   2.0000       0.948094        25.7990
  77   0.0000       1.338730        36.4287
  78   0.0000       1.375432        37.4274
  79   0.0000       1.407307        38.2948
  80   0.0000       1.410028        38.3688
  81   0.0000       1.415565        38.5195

MULLIKEN ATOMIC CHARGES
-----------------------
   0 C :   -0.257081
   1 C :    0.026421
   2 O :   -0.343958
   3 C :    0.482432
   4 O :   -0.547299
   5 C :   -0.183486
   6 C :    0.212517
   7 C :   -0.313759
   8 N :   -0.158558
   9 C :    0.362474
  10 S :   -0.747526
  11 N :   -0.198487
  12 C :    0.066384
  13 C :   -0.018815
  14 C :   -0.191838
  15 C :   -0.196046
  16 C :   -0.264770
  17 C :    0.310568
  18 O :   -0.407202
  19 C :   -0.287405
  20 H :    0.100187
  21 H :    0.098429
  22 H :    0.103242
  23 H :    0.123734
  24 H :    0.130516
  25 H :    0.129660
  26 H :    0.136637
  27 H :    0.132970
  28 H :    0.241417
  29 H :    0.253546
  30 H :    0.171717
  31 H :    0.176332
  32 H :    0.206871
  33 H :    0.165386
  34 H :    0.323518
  35 H :    0.161270
Sum of atomic charges:   -0.0000000

LOEWDIN ATOMIC CHARGES
----------------------
   0 C :    0.109189
   1 C :    0.038768
   2 O :    0.305025
   3 C :   -0.431506
   4 O :    0.049304
   5 C :   -0.093862
   6 C :   -0.084440
   7 C :    0.141849
   8 N :    0.421109
   9 C :   -0.464371
  10 S :   -0.197149
  11 N :    0.433355
  12 C :   -0.023500
  13 C :   -0.059015
  14 C :    0.002236
  15 C :    0.037290
  16 C :    0.003960
  17 C :   -0.263329
  18 O :    0.423291
  19 C :    0.006774
  20 H :   -0.021707
  21 H :   -0.022617
  22 H :   -0.025534
  23 H :   -0.022914
  24 H :   -0.023384
  25 H :    0.004749
  26 H :   -0.003245
  27 H :   -0.001614
  28 H :   -0.029564
  29 H :   -0.042065
  30 H :    0.001388
  31 H :   -0.022514
  32 H :   -0.008972
  33 H :   -0.015841
  34 H :   -0.095283
  35 H :   -0.025860

  Mayer bond orders larger than 0.100000
B(  0-C ,  1-C ) :   0.9578 B(  0-C , 20-H ) :   0.9834 B(  0-C , 21-H ) :   0.9788
B(  0-C , 22-H ) :   0.9768 B(  1-C ,  2-O ) :   0.8365 B(  1-C , 23-H ) :   0.9801
B(  1-C , 24-H ) :   0.9722 B(  2-O ,  3-C ) :   1.2478 B(  3-C ,  4-O ) :   1.9359
B(  3-C ,  5-C ) :   1.0303 B(  5-C ,  6-C ) :   1.6595 B(  5-C , 12-C ) :   0.9711
B(  6-C ,  7-C ) :   0.9511 B(  6-C ,  8-N ) :   1.1051 B(  7-C , 25-H ) :   0.9608
B(  7-C , 26-H ) :   0.9870 B(  7-C , 27-H ) :   0.9627 B(  8-N ,  9-C ) :   1.2584
B(  8-N , 28-H ) :   0.9353 B(  9-C , 10-S ) :   1.2695 B(  9-C , 11-N ) :   1.4405
B( 11-N , 12-C ) :   0.9663 B( 11-N , 29-H ) :   0.9252 B( 12-C , 13-C ) :   0.9466
B( 12-C , 30-H ) :   0.9963 B( 13-C , 14-C ) :   1.3994 B( 13-C , 19-C ) :   1.3336
B( 14-C , 15-C ) :   1.3420 B( 14-C , 31-H ) :   0.9643 B( 15-C , 16-C ) :   1.3790
B( 15-C , 32-H ) :   0.9538 B( 16-C , 17-C ) :   1.2976 B( 16-C , 33-H ) :   0.9729
B( 17-C , 18-O ) :   1.1597 B( 17-C , 19-C ) :   1.3910 B( 18-O , 34-H ) :   0.9148
B( 19-C , 35-H ) :   0.9573

MP2 TOTAL ENERGY:    -1274.420551309 Eh
FINAL SINGLE POINT ENERGY     -1274.420551309207

DIPOLE MOMENT
-------------
                                X             Y             Z
Electronic contribution:     11.69727      -6.85463     -10.37167
Nuclear contribution   :    -13.36151       8.98773      13.43010
                        -----------------------------------------
Total Dipole Moment    :     -1.66424       2.13309       3.05843
                        -----------------------------------------
Magnitude (a.u.)       :      4.08335
Magnitude (Debye)      :     10.37906

Rotational constants in cm-1:     0.010033     0.008973     0.005811
Rotational constants in MHz :   300.788328   268.994250   174.210169

                             ****ORCA TERMINATED NORMALLY****
TOTAL RUN TIME: 0 days 1 hours 56 minutes 56 seconds 354 msec
