                         Program Version 5.0.0 -  RELEASE  -
|  1> ! RI-MP2 cc-pVTZ cc-pVTZ/c TightSCF KeepDens NoKeepInts
|  2>
|  3> %pointcharges "srfp_output"
|  4>
|  5> *xyz  0  1
|  6>     C    15.9379189    5.7994140    9.8132405
|  7>     C    14.8797596    6.0513562   10.9001220
|  8>     O    13.6160051    6.2691179   10.2250466
|  9>     C    12.5338179    6.5955036   11.0113478
| 10>     O    12.4811743    6.5304410   12.2403010
| 11>     C    11.3171803    6.4675502   10.1478378
| 12>     C    11.1929340    6.9558849    8.8832638
| 13>     C    12.1902592    7.7211891    8.0868548
| 14>     N    10.0878141    6.7259604    8.1914914
| 15>     C     8.9315033    6.1419235    8.6678431
| 16>     S     7.5664022    6.1270790    7.7560649
| 17>     N     9.0686247    5.6062561    9.8590075
| 18>     C    10.1752347    5.7712634   10.8032173
| 19>     C    10.5446956    4.4023758   11.3109834
| 20>     C     9.7940393    3.8889318   12.4376757
| 21>     C    10.0740935    2.6188636   13.0200570
| 22>     C    11.1465279    1.8623835   12.4785201
| 23>     C    11.8760160    2.3768468   11.4047866
| 24>     O    12.8700117    1.5977412   10.8968174
| 25>     C    11.5852973    3.6114071   10.8092999
| 26>     H    16.9040132    5.6641527   10.3147939
| 27>     H    16.0032682    6.7159375    9.2141515
| 28>     H    15.5681456    4.9323850    9.2522427
| 29>     H    14.8243492    5.2149137   11.6075704
| 30>     H    15.1989013    6.9776805   11.3933486
| 31>     H    12.8473117    8.3053222    8.7428004
| 32>     H    11.5322523    8.4777974    7.6421516
| 33>     H    12.8144006    7.1762557    7.3680470
| 34>     H    10.0721254    7.0123543    7.2200478
| 35>     H     8.2701921    5.0836582   10.1986591
| 36>     H     9.8031573    6.3758205   11.6394377
| 37>     H     8.9392291    4.4455048   12.8103981
| 38>     H     9.5232867    2.2293168   13.8710924
| 39>     H    11.4294259    0.9347470   12.9672482
| 40>     H    13.1888441    1.0256434   11.6163863
| 41>     H    12.2365099    3.9427553   10.0058522
| 42> *
| 43>
| 44>                          ****END OF INPUT****

CARTESIAN COORDINATES (ANGSTROEM)
---------------------------------
  C     15.937919    5.799414    9.813240
  C     14.879760    6.051356   10.900122
  O     13.616005    6.269118   10.225047
  C     12.533818    6.595504   11.011348
  O     12.481174    6.530441   12.240301
  C     11.317180    6.467550   10.147838
  C     11.192934    6.955885    8.883264
  C     12.190259    7.721189    8.086855
  N     10.087814    6.725960    8.191491
  C      8.931503    6.141923    8.667843
  S      7.566402    6.127079    7.756065
  N      9.068625    5.606256    9.859008
  C     10.175235    5.771263   10.803217
  C     10.544696    4.402376   11.310983
  C      9.794039    3.888932   12.437676
  C     10.074094    2.618864   13.020057
  C     11.146528    1.862383   12.478520
  C     11.876016    2.376847   11.404787
  O     12.870012    1.597741   10.896817
  C     11.585297    3.611407   10.809300
  H     16.904013    5.664153   10.314794
  H     16.003268    6.715937    9.214151
  H     15.568146    4.932385    9.252243
  H     14.824349    5.214914   11.607570
  H     15.198901    6.977680   11.393349
  H     12.847312    8.305322    8.742800
  H     11.532252    8.477797    7.642152
  H     12.814401    7.176256    7.368047
  H     10.072125    7.012354    7.220048
  H      8.270192    5.083658   10.198659
  H      9.803157    6.375820   11.639438
  H      8.939229    4.445505   12.810398
  H      9.523287    2.229317   13.871092
  H     11.429426    0.934747   12.967248
  H     13.188844    1.025643   11.616386
  H     12.236510    3.942755   10.005852

 Total Charge           Charge          ....    0
 Multiplicity           Mult            ....    1
 Number of Electrons    NEL             ....  154
 Basis Dimension        Dim             ....  828

ORBITAL ENERGIES
----------------

  NO   OCC          E(Eh)            E(eV)
   0   2.0000     -92.683379     -2522.0430
   1   2.0000     -21.365425      -581.3828
   2   2.0000     -21.340425      -580.7025
   3   2.0000     -21.328700      -580.3834
   4   2.0000     -16.377838      -445.6636
   5   2.0000     -16.374690      -445.5780
   6   2.0000     -12.169753      -331.1558
   7   2.0000     -12.158773      -330.8570
   8   2.0000     -12.073725      -328.5428
   9   2.0000     -12.063552      -328.2659
  10   2.0000     -12.060127      -328.1727
  11   2.0000     -12.037689      -327.5622
  12   2.0000     -12.018546      -327.0413
  13   2.0000     -12.007596      -326.7433
  14   2.0000     -11.997771      -326.4759
  15   2.0000     -11.996212      -326.4335
  16   2.0000     -11.995596      -326.4168
  17   2.0000     -11.991440      -326.3037
  18   2.0000     -11.988343      -326.2194
  19   2.0000     -11.970406      -325.7313
  20   2.0000      -9.690761      -263.6990
  21   2.0000      -7.372905      -200.6270
  22   2.0000      -7.370757      -200.5685
  23   2.0000      -7.370374      -200.5581
  24   2.0000      -2.212132       -60.1952
  25   2.0000      -2.160692       -58.7954
  26   2.0000      -2.128066       -57.9076
  27   2.0000      -2.124520       -57.8111
  28   2.0000      -2.018087       -54.9150
  29   2.0000      -1.914116       -52.0857
  30   2.0000      -1.878562       -51.1183
  31   2.0000      -1.798524       -48.9403
  32   2.0000      -1.794316       -48.8258
  33   2.0000      -1.765632       -48.0453
  34   2.0000      -1.759622       -47.8817
  35   2.0000      -1.749687       -47.6114
  36   2.0000      -1.685838       -45.8740
  37   2.0000      -1.637115       -44.5482
  38   2.0000      -1.616888       -43.9978
  39   2.0000      -1.587580       -43.2002
  40   2.0000      -1.583238       -43.0821
  41   2.0000      -1.568009       -42.6677
  42   2.0000      -1.517948       -41.3055
  43   2.0000      -1.508287       -41.0426
  44   2.0000      -1.481518       -40.3142
  45   2.0000      -1.456104       -39.6226
  46   2.0000      -1.447281       -39.3825
  47   2.0000      -1.440960       -39.2105
  48   2.0000      -1.430724       -38.9320
  49   2.0000      -1.421519       -38.6815
  50   2.0000      -1.412130       -38.4260
  51   2.0000      -1.401065       -38.1249
  52   2.0000      -1.393845       -37.9284
  53   2.0000      -1.366324       -37.1796
  54   2.0000      -1.360700       -37.0265
  55   2.0000      -1.354513       -36.8582
  56   2.0000      -1.345522       -36.6135
  57   2.0000      -1.330816       -36.2134
  58   2.0000      -1.327000       -36.1095
  59   2.0000      -1.321370       -35.9563
  60   2.0000      -1.313080       -35.7307
  61   2.0000      -1.302055       -35.4307
  62   2.0000      -1.289682       -35.0940
  63   2.0000      -1.283035       -34.9132
  64   2.0000      -1.272775       -34.6340
  65   2.0000      -1.269645       -34.5488
  66   2.0000      -1.249452       -33.9993
  67   2.0000      -1.244829       -33.8735
  68   2.0000      -1.235497       -33.6196
  69   2.0000      -1.231508       -33.5110
  70   2.0000      -1.226945       -33.3869
  71   2.0000      -1.219272       -33.1781
  72   2.0000      -1.133995       -30.8576
  73   2.0000      -1.131012       -30.7764
  74   2.0000      -1.101348       -29.9692
  75   2.0000      -1.085811       -29.5464
  76   2.0000      -1.072254       -29.1775
  77   0.0000      -0.683176       -18.5902
  78   0.0000      -0.647858       -17.6291
  79   0.0000      -0.626145       -17.0383
  80   0.0000      -0.619676       -16.8622
  81   0.0000      -0.607315       -16.5259

MULLIKEN ATOMIC CHARGES
-----------------------
   0 C :   -0.260807
   1 C :    0.018273
   2 O :   -0.330081
   3 C :    0.527976
   4 O :   -0.586997
   5 C :   -0.230927
   6 C :    0.164169
   7 C :   -0.303221
   8 N :   -0.113386
   9 C :    0.368397
  10 S :   -0.747831
  11 N :   -0.193374
  12 C :    0.130598
  13 C :   -0.033766
  14 C :   -0.222615
  15 C :   -0.169480
  16 C :   -0.281409
  17 C :    0.333712
  18 O :   -0.474788
  19 C :   -0.268211
  20 H :    0.110528
  21 H :    0.099853
  22 H :    0.095995
  23 H :    0.112639
  24 H :    0.111237
  25 H :    0.123825
  26 H :    0.118486
  27 H :    0.145604
  28 H :    0.246532
  29 H :    0.254361
  30 H :    0.171381
  31 H :    0.182386
  32 H :    0.204900
  33 H :    0.181573
  34 H :    0.331696
  35 H :    0.182773
Sum of atomic charges:    0.0000000

LOEWDIN ATOMIC CHARGES
----------------------
   0 C :    0.119455
   1 C :   -0.011558
   2 O :    0.311353
   3 C :   -0.359827
   4 O :   -0.008503
   5 C :   -0.102456
   6 C :   -0.104863
   7 C :    0.143982
   8 N :    0.438666
   9 C :   -0.440870
  10 S :   -0.214784
  11 N :    0.453469
  12 C :   -0.055380
  13 C :   -0.043945
  14 C :    0.022472
  15 C :    0.043818
  16 C :    0.007685
  17 C :   -0.200074
  18 O :    0.344980
  19 C :    0.018552
  20 H :   -0.017857
  21 H :   -0.024529
  22 H :   -0.029719
  23 H :   -0.029265
  24 H :   -0.025947
  25 H :   -0.004813
  26 H :   -0.002713
  27 H :   -0.003752
  28 H :   -0.015555
  29 H :   -0.021412
  30 H :    0.002971
  31 H :   -0.024707
  32 H :   -0.014069
  33 H :   -0.018141
  34 H :   -0.109362
  35 H :   -0.023303

  Mayer bond orders larger than 0.100000
B(  0-C ,  1-C ) :   0.9671 B(  0-C , 20-H ) :   0.9768 B(  0-C , 21-H ) :   0.9776
B(  0-C , 22-H ) :   0.9783 B(  1-C ,  2-O ) :   0.8809 B(  1-C , 23-H ) :   0.9737
B(  1-C , 24-H ) :   0.9814 B(  2-O ,  3-C ) :   1.2051 B(  3-C ,  4-O ) :   1.8915
B(  3-C ,  5-C ) :   1.0477 B(  5-C ,  6-C ) :   1.6118 B(  5-C , 12-C ) :   0.9751
B(  6-C ,  7-C ) :   0.9452 B(  6-C ,  8-N ) :   1.1998 B(  7-C , 25-H ) :   0.9763
B(  7-C , 26-H ) :   0.9786 B(  7-C , 27-H ) :   0.9602 B(  8-N ,  9-C ) :   1.2168
B(  8-N , 28-H ) :   0.9306 B(  9-C , 10-S ) :   1.2278 B(  9-C , 11-N ) :   1.5013
B( 11-N , 12-C ) :   0.9272 B( 11-N , 29-H ) :   0.9201 B( 12-C , 13-C ) :   0.9437
B( 12-C , 30-H ) :   0.9964 B( 13-C , 14-C ) :   1.3567 B( 13-C , 19-C ) :   1.3930
B( 14-C , 15-C ) :   1.4050 B( 14-C , 31-H ) :   0.9586 B( 15-C , 16-C ) :   1.3269
B( 15-C , 32-H ) :   0.9537 B( 16-C , 17-C ) :   1.3553 B( 16-C , 33-H ) :   0.9681
B( 17-C , 18-O ) :   1.0490 B( 17-C , 19-C ) :   1.3575 B( 18-O , 34-H ) :   0.9147
B( 19-C , 35-H ) :   0.9473

MP2 TOTAL ENERGY:    -1274.454568646 Eh
FINAL SINGLE POINT ENERGY     -1274.454568645573

DIPOLE MOMENT
-------------
                                X             Y             Z
Electronic contribution:    -15.26421      -0.82845      -0.77228
Nuclear contribution   :     18.44248       0.76591       1.60071
                        -----------------------------------------
Total Dipole Moment    :      3.17827      -0.06254       0.82843
                        -----------------------------------------
Magnitude (a.u.)       :      3.28506
Magnitude (Debye)      :      8.34996

Rotational constants in cm-1:     0.011556     0.008802     0.005929
Rotational constants in MHz :   346.432374   263.875560   177.756748

                             ****ORCA TERMINATED NORMALLY****
TOTAL RUN TIME: 0 days 1 hours 28 minutes 34 seconds 956 msec
