                         Program Version 5.0.0 -  RELEASE  -
|  1> ! RI-MP2 cc-pVTZ cc-pVTZ/c TightSCF KeepDens NoKeepInts
|  2>
|  3> *xyz  0  1
|  4>     C    15.9379189    5.7994140    9.8132405
|  5>     C    14.8797596    6.0513562   10.9001220
|  6>     O    13.6160051    6.2691179   10.2250466
|  7>     C    12.5338179    6.5955036   11.0113478
|  8>     O    12.4811743    6.5304410   12.2403010
|  9>     C    11.3171803    6.4675502   10.1478378
| 10>     C    11.1929340    6.9558849    8.8832638
| 11>     C    12.1902592    7.7211891    8.0868548
| 12>     N    10.0878141    6.7259604    8.1914914
| 13>     C     8.9315033    6.1419235    8.6678431
| 14>     S     7.5664022    6.1270790    7.7560649
| 15>     N     9.0686247    5.6062561    9.8590075
| 16>     C    10.1752347    5.7712634   10.8032173
| 17>     C    10.5446956    4.4023758   11.3109834
| 18>     C     9.7940393    3.8889318   12.4376757
| 19>     C    10.0740935    2.6188636   13.0200570
| 20>     C    11.1465279    1.8623835   12.4785201
| 21>     C    11.8760160    2.3768468   11.4047866
| 22>     O    12.8700117    1.5977412   10.8968174
| 23>     C    11.5852973    3.6114071   10.8092999
| 24>     H    16.9040132    5.6641527   10.3147939
| 25>     H    16.0032682    6.7159375    9.2141515
| 26>     H    15.5681456    4.9323850    9.2522427
| 27>     H    14.8243492    5.2149137   11.6075704
| 28>     H    15.1989013    6.9776805   11.3933486
| 29>     H    12.8473117    8.3053222    8.7428004
| 30>     H    11.5322523    8.4777974    7.6421516
| 31>     H    12.8144006    7.1762557    7.3680470
| 32>     H    10.0721254    7.0123543    7.2200478
| 33>     H     8.2701921    5.0836582   10.1986591
| 34>     H     9.8031573    6.3758205   11.6394377
| 35>     H     8.9392291    4.4455048   12.8103981
| 36>     H     9.5232867    2.2293168   13.8710924
| 37>     H    11.4294259    0.9347470   12.9672482
| 38>     H    13.1888441    1.0256434   11.6163863
| 39>     H    12.2365099    3.9427553   10.0058522
| 40> *
| 41>
| 42>                          ****END OF INPUT****

CARTESIAN COORDINATES (ANGSTROEM)
---------------------------------
  C     15.937919    5.799414    9.813240
  C     14.879760    6.051356   10.900122
  O     13.616005    6.269118   10.225047
  C     12.533818    6.595504   11.011348
  O     12.481174    6.530441   12.240301
  C     11.317180    6.467550   10.147838
  C     11.192934    6.955885    8.883264
  C     12.190259    7.721189    8.086855
  N     10.087814    6.725960    8.191491
  C      8.931503    6.141923    8.667843
  S      7.566402    6.127079    7.756065
  N      9.068625    5.606256    9.859008
  C     10.175235    5.771263   10.803217
  C     10.544696    4.402376   11.310983
  C      9.794039    3.888932   12.437676
  C     10.074094    2.618864   13.020057
  C     11.146528    1.862383   12.478520
  C     11.876016    2.376847   11.404787
  O     12.870012    1.597741   10.896817
  C     11.585297    3.611407   10.809300
  H     16.904013    5.664153   10.314794
  H     16.003268    6.715937    9.214151
  H     15.568146    4.932385    9.252243
  H     14.824349    5.214914   11.607570
  H     15.198901    6.977680   11.393349
  H     12.847312    8.305322    8.742800
  H     11.532252    8.477797    7.642152
  H     12.814401    7.176256    7.368047
  H     10.072125    7.012354    7.220048
  H      8.270192    5.083658   10.198659
  H      9.803157    6.375820   11.639438
  H      8.939229    4.445505   12.810398
  H      9.523287    2.229317   13.871092
  H     11.429426    0.934747   12.967248
  H     13.188844    1.025643   11.616386
  H     12.236510    3.942755   10.005852

 Total Charge           Charge          ....    0
 Multiplicity           Mult            ....    1
 Number of Electrons    NEL             ....  154
 Basis Dimension        Dim             ....  828

ORBITAL ENERGIES
----------------

  NO   OCC          E(Eh)            E(eV)
   0   2.0000     -91.887448     -2500.3846
   1   2.0000     -20.607918      -560.7700
   2   2.0000     -20.590295      -560.2904
   3   2.0000     -20.551415      -559.2324
   4   2.0000     -15.617467      -424.9729
   5   2.0000     -15.609399      -424.7533
   6   2.0000     -11.394601      -310.0628
   7   2.0000     -11.377512      -309.5978
   8   2.0000     -11.320440      -308.0448
   9   2.0000     -11.308709      -307.7256
  10   2.0000     -11.302606      -307.5595
  11   2.0000     -11.295068      -307.3544
  12   2.0000     -11.262399      -306.4655
  13   2.0000     -11.257302      -306.3268
  14   2.0000     -11.255882      -306.2881
  15   2.0000     -11.243443      -305.9496
  16   2.0000     -11.242253      -305.9173
  17   2.0000     -11.239091      -305.8312
  18   2.0000     -11.237807      -305.7963
  19   2.0000     -11.234304      -305.7010
  20   2.0000      -8.893040      -241.9919
  21   2.0000      -6.574701      -178.9067
  22   2.0000      -6.572588      -178.8492
  23   2.0000      -6.572007      -178.8334
  24   2.0000      -1.447063       -39.3766
  25   2.0000      -1.409336       -38.3500
  26   2.0000      -1.362710       -37.0812
  27   2.0000      -1.355381       -36.8818
  28   2.0000      -1.258853       -34.2551
  29   2.0000      -1.154823       -31.4243
  30   2.0000      -1.120280       -30.4844
  31   2.0000      -1.048310       -28.5260
  32   2.0000      -1.043117       -28.3847
  33   2.0000      -1.011024       -27.5114
  34   2.0000      -1.002124       -27.2692
  35   2.0000      -0.986884       -26.8545
  36   2.0000      -0.927812       -25.2470
  37   2.0000      -0.883366       -24.0376
  38   2.0000      -0.857667       -23.3383
  39   2.0000      -0.833563       -22.6824
  40   2.0000      -0.829775       -22.5793
  41   2.0000      -0.815571       -22.1928
  42   2.0000      -0.757549       -20.6139
  43   2.0000      -0.747622       -20.3438
  44   2.0000      -0.727524       -19.7969
  45   2.0000      -0.693533       -18.8720
  46   2.0000      -0.687455       -18.7066
  47   2.0000      -0.681161       -18.5353
  48   2.0000      -0.679138       -18.4803
  49   2.0000      -0.663896       -18.0655
  50   2.0000      -0.651952       -17.7405
  51   2.0000      -0.647384       -17.6162
  52   2.0000      -0.641800       -17.4643
  53   2.0000      -0.617861       -16.8129
  54   2.0000      -0.610159       -16.6033
  55   2.0000      -0.599817       -16.3218
  56   2.0000      -0.591387       -16.0925
  57   2.0000      -0.577709       -15.7203
  58   2.0000      -0.571389       -15.5483
  59   2.0000      -0.567438       -15.4408
  60   2.0000      -0.561698       -15.2846
  61   2.0000      -0.552179       -15.0256
  62   2.0000      -0.535705       -14.5773
  63   2.0000      -0.523833       -14.2542
  64   2.0000      -0.518030       -14.0963
  65   2.0000      -0.509039       -13.8516
  66   2.0000      -0.498609       -13.5678
  67   2.0000      -0.493118       -13.4184
  68   2.0000      -0.479366       -13.0442
  69   2.0000      -0.473581       -12.8868
  70   2.0000      -0.461560       -12.5597
  71   2.0000      -0.452936       -12.3250
  72   2.0000      -0.347754        -9.4629
  73   2.0000      -0.343316        -9.3421
  74   2.0000      -0.327684        -8.9167
  75   2.0000      -0.318016        -8.6537
  76   2.0000      -0.313247        -8.5239
  77   0.0000       0.084875         2.3096
  78   0.0000       0.108399         2.9497
  79   0.0000       0.115517         3.1434
  80   0.0000       0.127358         3.4656
  81   0.0000       0.133848         3.6422

MULLIKEN ATOMIC CHARGES
-----------------------
   0 C :   -0.257774
   1 C :    0.031179
   2 O :   -0.346991
   3 C :    0.445578
   4 O :   -0.416605
   5 C :   -0.238865
   6 C :    0.145251
   7 C :   -0.315529
   8 N :   -0.093890
   9 C :    0.194779
  10 S :   -0.443495
  11 N :   -0.174102
  12 C :    0.113559
  13 C :    0.057305
  14 C :   -0.212320
  15 C :   -0.140056
  16 C :   -0.259463
  17 C :    0.298907
  18 O :   -0.374201
  19 C :   -0.244314
  20 H :    0.095555
  21 H :    0.089456
  22 H :    0.100750
  23 H :    0.108582
  24 H :    0.092862
  25 H :    0.113759
  26 H :    0.100935
  27 H :    0.137274
  28 H :    0.186114
  29 H :    0.192362
  30 H :    0.150812
  31 H :    0.147839
  32 H :    0.165821
  33 H :    0.133272
  34 H :    0.243064
  35 H :    0.172592
Sum of atomic charges:    0.0000000

LOEWDIN ATOMIC CHARGES
----------------------
   0 C :    0.114201
   1 C :   -0.013616
   2 O :    0.296750
   3 C :   -0.394410
   4 O :    0.097694
   5 C :   -0.104778
   6 C :   -0.128691
   7 C :    0.130788
   8 N :    0.420495
   9 C :   -0.485170
  10 S :   -0.023805
  11 N :    0.427954
  12 C :   -0.061068
  13 C :   -0.022762
  14 C :    0.024594
  15 C :    0.050404
  16 C :   -0.000235
  17 C :   -0.192287
  18 O :    0.381227
  19 C :    0.032829
  20 H :   -0.024034
  21 H :   -0.028603
  22 H :   -0.028850
  23 H :   -0.029150
  24 H :   -0.032195
  25 H :   -0.009965
  26 H :   -0.013318
  27 H :   -0.010180
  28 H :   -0.045359
  29 H :   -0.051595
  30 H :   -0.004121
  31 H :   -0.037737
  32 H :   -0.024762
  33 H :   -0.034693
  34 H :   -0.150799
  35 H :   -0.024754

  Mayer bond orders larger than 0.100000
B(  0-C ,  1-C ) :   0.9622 B(  0-C , 20-H ) :   0.9798 B(  0-C , 21-H ) :   0.9795
B(  0-C , 22-H ) :   0.9782 B(  1-C ,  2-O ) :   0.9011 B(  1-C , 23-H ) :   0.9751
B(  1-C , 24-H ) :   0.9862 B(  2-O ,  3-C ) :   1.1526 B(  3-C ,  4-O ) :   2.0058
B(  3-C ,  5-C ) :   1.0149 B(  5-C ,  6-C ) :   1.6182 B(  5-C , 12-C ) :   0.9762
B(  6-C ,  7-C ) :   0.9391 B(  6-C ,  8-N ) :   1.2085 B(  7-C , 25-H ) :   0.9797
B(  7-C , 26-H ) :   0.9860 B(  7-C , 27-H ) :   0.9635 B(  8-N ,  9-C ) :   1.1304
B(  8-N , 28-H ) :   0.9552 B(  9-C , 10-S ) :   1.6103 B(  9-C , 11-N ) :   1.3821
B( 11-N , 12-C ) :   0.9483 B( 11-N , 29-H ) :   0.9479 B( 12-C , 13-C ) :   0.9528
B( 12-C , 30-H ) :   0.9964 B( 13-C , 14-C ) :   1.3395 B( 13-C , 19-C ) :   1.4014
B( 14-C , 15-C ) :   1.4307 B( 14-C , 31-H ) :   0.9708 B( 15-C , 16-C ) :   1.3386
B( 15-C , 32-H ) :   0.9672 B( 16-C , 17-C ) :   1.3605 B( 16-C , 33-H ) :   0.9840
B( 17-C , 18-O ) :   1.0609 B( 17-C , 19-C ) :   1.3620 B( 18-O , 34-H ) :   0.9764
B( 19-C , 35-H ) :   0.9514

MP2 TOTAL ENERGY:    -1274.318215971 Eh
FINAL SINGLE POINT ENERGY     -1274.318215970668

DIPOLE MOMENT
-------------
                                X             Y             Z
Electronic contribution:    -16.42610      -0.84101      -1.06978
Nuclear contribution   :     18.44248       0.76591       1.60071
                        -----------------------------------------
Total Dipole Moment    :      2.01638      -0.07510       0.53093
                        -----------------------------------------
Magnitude (a.u.)       :      2.08646
Magnitude (Debye)      :      5.30335

Rotational constants in cm-1:     0.011556     0.008802     0.005929
Rotational constants in MHz :   346.432374   263.875560   177.756748

                             ****ORCA TERMINATED NORMALLY****
TOTAL RUN TIME: 0 days 1 hours 31 minutes 49 seconds 932 msec
