                         Program Version 5.0.0 -  RELEASE  -
|  1> ! RI-MP2 cc-pVTZ cc-pVTZ/c TightSCF KeepDens NoKeepInts
|  2>
|  3> %pointcharges "srfp_output"
|  4>
|  5> *xyz  0  1
|  6>     C    -1.9796824  -12.3574402   12.2910797
|  7>     C    -1.7378838  -11.1428696   11.4302919
|  8>     O    -1.8292113  -11.4277883   10.0281253
|  9>     C    -1.0208203  -12.2604226    9.3380739
| 10>     O    -0.0534547  -12.7790809    9.8548568
| 11>     C    -1.4005244  -12.3067111    7.8672628
| 12>     C    -0.5310235  -12.6184179    6.8663483
| 13>     C     1.0018314  -12.7595159    6.9501506
| 14>     N    -0.9135382  -12.7474296    5.5610792
| 15>     C    -2.2565434  -12.4848119    5.2137177
| 16>     S    -2.5429632  -12.5078835    3.6084767
| 17>     N    -3.1572241  -12.1328392    6.1783104
| 18>     C    -2.8672859  -12.2282047    7.5886211
| 19>     C    -3.6537831  -13.3601753    8.3130708
| 20>     C    -4.6537865  -13.0640416    9.1747036
| 21>     C    -5.3422778  -14.1010785    9.8231202
| 22>     C    -5.0367436  -15.4476953    9.5987830
| 23>     C    -4.0402797  -15.7519201    8.6816540
| 24>     O    -3.7390140  -16.9811175    8.3328995
| 25>     C    -3.3577600  -14.7084039    8.0450200
| 26>     H    -1.7554973  -12.1833228   13.3506140
| 27>     H    -1.4797721  -13.2987714   12.0318985
| 28>     H    -3.0425179  -12.6271674   12.3196494
| 29>     H    -2.4198720  -10.3360886   11.7255657
| 30>     H    -0.7490668  -10.7274403   11.6601809
| 31>     H     1.4198220  -12.5631355    7.9450922
| 32>     H     1.5256009  -11.9820630    6.3805698
| 33>     H     1.3470826  -13.7364200    6.5900814
| 34>     H    -0.2697071  -12.9238308    4.7992849
| 35>     H    -4.1026881  -11.9912334    5.8436283
| 36>     H    -3.2352257  -11.2712781    7.9786241
| 37>     H    -4.9388286  -12.0278449    9.3310755
| 38>     H    -6.1124727  -13.8181421   10.5345574
| 39>     H    -5.4139182  -16.2170217   10.2660702
| 40>     H    -4.2852902  -17.6904578    8.7138827
| 41>     H    -2.6222656  -14.8956994    7.2682546
| 42> *
| 43>
| 44>                          ****END OF INPUT****

CARTESIAN COORDINATES (ANGSTROEM)
---------------------------------
  C     -1.979682  -12.357440   12.291080
  C     -1.737884  -11.142870   11.430292
  O     -1.829211  -11.427788   10.028125
  C     -1.020820  -12.260423    9.338074
  O     -0.053455  -12.779081    9.854857
  C     -1.400524  -12.306711    7.867263
  C     -0.531023  -12.618418    6.866348
  C      1.001831  -12.759516    6.950151
  N     -0.913538  -12.747430    5.561079
  C     -2.256543  -12.484812    5.213718
  S     -2.542963  -12.507883    3.608477
  N     -3.157224  -12.132839    6.178310
  C     -2.867286  -12.228205    7.588621
  C     -3.653783  -13.360175    8.313071
  C     -4.653786  -13.064042    9.174704
  C     -5.342278  -14.101078    9.823120
  C     -5.036744  -15.447695    9.598783
  C     -4.040280  -15.751920    8.681654
  O     -3.739014  -16.981117    8.332899
  C     -3.357760  -14.708404    8.045020
  H     -1.755497  -12.183323   13.350614
  H     -1.479772  -13.298771   12.031898
  H     -3.042518  -12.627167   12.319649
  H     -2.419872  -10.336089   11.725566
  H     -0.749067  -10.727440   11.660181
  H      1.419822  -12.563135    7.945092
  H      1.525601  -11.982063    6.380570
  H      1.347083  -13.736420    6.590081
  H     -0.269707  -12.923831    4.799285
  H     -4.102688  -11.991233    5.843628
  H     -3.235226  -11.271278    7.978624
  H     -4.938829  -12.027845    9.331076
  H     -6.112473  -13.818142   10.534557
  H     -5.413918  -16.217022   10.266070
  H     -4.285290  -17.690458    8.713883
  H     -2.622266  -14.895699    7.268255

 Total Charge           Charge          ....    0
 Multiplicity           Mult            ....    1
 Number of Electrons    NEL             ....  154
 Basis Dimension        Dim             ....  828

ORBITAL ENERGIES
----------------

  NO   OCC          E(Eh)            E(eV)
   0   2.0000     -92.612580     -2520.1164
   1   2.0000     -21.318445      -580.1044
   2   2.0000     -21.304223      -579.7174
   3   2.0000     -21.274124      -578.8983
   4   2.0000     -16.331421      -444.4006
   5   2.0000     -16.326665      -444.2711
   6   2.0000     -12.125548      -329.9529
   7   2.0000     -12.104714      -329.3860
   8   2.0000     -12.039023      -327.5985
   9   2.0000     -12.022674      -327.1536
  10   2.0000     -12.010221      -326.8147
  11   2.0000     -12.005696      -326.6916
  12   2.0000     -11.965104      -325.5870
  13   2.0000     -11.961072      -325.4773
  14   2.0000     -11.958522      -325.4079
  15   2.0000     -11.946917      -325.0921
  16   2.0000     -11.946808      -325.0892
  17   2.0000     -11.943991      -325.0125
  18   2.0000     -11.936082      -324.7973
  19   2.0000     -11.924856      -324.4918
  20   2.0000      -9.620031      -261.7744
  21   2.0000      -7.301970      -198.6967
  22   2.0000      -7.299904      -198.6405
  23   2.0000      -7.299363      -198.6258
  24   2.0000      -2.181363       -59.3579
  25   2.0000      -2.140674       -58.2507
  26   2.0000      -2.085612       -56.7524
  27   2.0000      -2.049218       -55.7621
  28   2.0000      -1.956645       -53.2430
  29   2.0000      -1.873932       -50.9923
  30   2.0000      -1.830742       -49.8170
  31   2.0000      -1.753732       -47.7215
  32   2.0000      -1.749194       -47.5980
  33   2.0000      -1.724808       -46.9344
  34   2.0000      -1.709415       -46.5156
  35   2.0000      -1.698084       -46.2072
  36   2.0000      -1.632266       -44.4162
  37   2.0000      -1.612707       -43.8840
  38   2.0000      -1.555865       -42.3372
  39   2.0000      -1.550957       -42.2037
  40   2.0000      -1.545319       -42.0503
  41   2.0000      -1.530083       -41.6357
  42   2.0000      -1.470510       -40.0146
  43   2.0000      -1.454982       -39.5921
  44   2.0000      -1.439589       -39.1732
  45   2.0000      -1.412594       -38.4386
  46   2.0000      -1.405828       -38.2545
  47   2.0000      -1.400207       -38.1016
  48   2.0000      -1.385052       -37.6892
  49   2.0000      -1.381428       -37.5906
  50   2.0000      -1.363832       -37.1117
  51   2.0000      -1.348388       -36.6915
  52   2.0000      -1.345903       -36.6239
  53   2.0000      -1.326981       -36.1090
  54   2.0000      -1.324888       -36.0520
  55   2.0000      -1.309834       -35.6424
  56   2.0000      -1.302467       -35.4419
  57   2.0000      -1.287836       -35.0438
  58   2.0000      -1.281687       -34.8765
  59   2.0000      -1.267702       -34.4959
  60   2.0000      -1.264855       -34.4185
  61   2.0000      -1.250431       -34.0260
  62   2.0000      -1.241980       -33.7960
  63   2.0000      -1.233955       -33.5776
  64   2.0000      -1.231652       -33.5150
  65   2.0000      -1.228980       -33.4422
  66   2.0000      -1.208331       -32.8803
  67   2.0000      -1.205833       -32.8124
  68   2.0000      -1.197697       -32.5910
  69   2.0000      -1.176238       -32.0071
  70   2.0000      -1.175191       -31.9786
  71   2.0000      -1.170530       -31.8517
  72   2.0000      -1.068686       -29.0804
  73   2.0000      -1.063267       -28.9330
  74   2.0000      -1.056073       -28.7372
  75   2.0000      -1.037327       -28.2271
  76   2.0000      -1.031671       -28.0732
  77   0.0000      -0.633134       -17.2285
  78   0.0000      -0.599921       -16.3247
  79   0.0000      -0.567562       -15.4441
  80   0.0000      -0.565608       -15.3910
  81   0.0000      -0.560709       -15.2577

MULLIKEN ATOMIC CHARGES
-----------------------
   0 C :   -0.312888
   1 C :    0.025752
   2 O :   -0.337480
   3 C :    0.488760
   4 O :   -0.548681
   5 C :   -0.195643
   6 C :    0.134976
   7 C :   -0.283285
   8 N :   -0.131635
   9 C :    0.279316
  10 S :   -0.595285
  11 N :   -0.192308
  12 C :    0.038889
  13 C :    0.037712
  14 C :   -0.211025
  15 C :   -0.122140
  16 C :   -0.326478
  17 C :    0.287878
  18 O :   -0.404477
  19 C :   -0.304521
  20 H :    0.121099
  21 H :    0.106377
  22 H :    0.097657
  23 H :    0.140303
  24 H :    0.105848
  25 H :    0.117657
  26 H :    0.129777
  27 H :    0.128090
  28 H :    0.267098
  29 H :    0.250915
  30 H :    0.172971
  31 H :    0.174629
  32 H :    0.187160
  33 H :    0.178263
  34 H :    0.319987
  35 H :    0.174731
Sum of atomic charges:    0.0000000

LOEWDIN ATOMIC CHARGES
----------------------
   0 C :    0.095602
   1 C :   -0.025375
   2 O :    0.332019
   3 C :   -0.411160
   4 O :    0.021061
   5 C :   -0.103120
   6 C :   -0.073906
   7 C :    0.138369
   8 N :    0.410361
   9 C :   -0.421544
  10 S :   -0.114835
  11 N :    0.426899
  12 C :   -0.070941
  13 C :   -0.050999
  14 C :    0.006144
  15 C :    0.051615
  16 C :   -0.002550
  17 C :   -0.257379
  18 O :    0.410649
  19 C :    0.010553
  20 H :   -0.013466
  21 H :   -0.027971
  22 H :   -0.025638
  23 H :   -0.008838
  24 H :   -0.024336
  25 H :   -0.018225
  26 H :   -0.008148
  27 H :   -0.011263
  28 H :   -0.025002
  29 H :   -0.028224
  30 H :   -0.004556
  31 H :   -0.015231
  32 H :   -0.013096
  33 H :   -0.019626
  34 H :   -0.102081
  35 H :   -0.025761

  Mayer bond orders larger than 0.100000
B(  0-C ,  1-C ) :   0.9565 B(  0-C , 20-H ) :   0.9730 B(  0-C , 21-H ) :   0.9764
B(  0-C , 22-H ) :   0.9741 B(  1-C ,  2-O ) :   0.8863 B(  1-C , 23-H ) :   0.9784
B(  1-C , 24-H ) :   0.9829 B(  2-O ,  3-C ) :   1.2095 B(  3-C ,  4-O ) :   1.9005
B(  3-C ,  5-C ) :   1.0484 B(  5-C ,  6-C ) :   1.5874 B(  5-C , 12-C ) :   0.9652
B(  6-C ,  7-C ) :   0.9673 B(  6-C ,  8-N ) :   1.2040 B(  7-C , 25-H ) :   0.9779
B(  7-C , 26-H ) :   0.9631 B(  7-C , 27-H ) :   0.9647 B(  8-N ,  9-C ) :   1.1795
B(  8-N , 28-H ) :   0.9127 B(  9-C , 10-S ) :   1.4785 B(  9-C , 11-N ) :   1.3947
B( 11-N , 12-C ) :   0.9751 B( 11-N , 29-H ) :   0.9222 B( 12-C , 13-C ) :   0.9433
B( 12-C , 30-H ) :   0.9984 B( 13-C , 14-C ) :   1.3819 B( 13-C , 19-C ) :   1.3289
B( 14-C , 15-C ) :   1.3449 B( 14-C , 31-H ) :   0.9642 B( 15-C , 16-C ) :   1.3696
B( 15-C , 32-H ) :   0.9653 B( 16-C , 17-C ) :   1.3251 B( 16-C , 33-H ) :   0.9655
B( 17-C , 18-O ) :   1.1707 B( 17-C , 19-C ) :   1.3722 B( 18-O , 34-H ) :   0.9108
B( 19-C , 35-H ) :   0.9525

MP2 TOTAL ENERGY:    -1274.416709650 Eh
FINAL SINGLE POINT ENERGY     -1274.416709649910

DIPOLE MOMENT
-------------
                                X             Y             Z
Electronic contribution:     -3.35466      -1.24374     -15.56809
Nuclear contribution   :      2.47514       1.48603      17.94446
                        -----------------------------------------
Total Dipole Moment    :     -0.87952       0.24229       2.37637
                        -----------------------------------------
Magnitude (a.u.)       :      2.54547
Magnitude (Debye)      :      6.47006

Rotational constants in cm-1:     0.011990     0.008557     0.006241
Rotational constants in MHz :   359.444671   256.523718   187.115256

                             ****ORCA TERMINATED NORMALLY****
TOTAL RUN TIME: 0 days 2 hours 3 minutes 11 seconds 866 msec
