                         Program Version 5.0.0 -  RELEASE  -
|  1> ! RI-MP2 cc-pVTZ cc-pVTZ/c TightSCF KeepDens NoKeepInts
|  2>
|  3> *xyz  0  1
|  4>     C    -1.9796824  -12.3574402   12.2910797
|  5>     C    -1.7378838  -11.1428696   11.4302919
|  6>     O    -1.8292113  -11.4277883   10.0281253
|  7>     C    -1.0208203  -12.2604226    9.3380739
|  8>     O    -0.0534547  -12.7790809    9.8548568
|  9>     C    -1.4005244  -12.3067111    7.8672628
| 10>     C    -0.5310235  -12.6184179    6.8663483
| 11>     C     1.0018314  -12.7595159    6.9501506
| 12>     N    -0.9135382  -12.7474296    5.5610792
| 13>     C    -2.2565434  -12.4848119    5.2137177
| 14>     S    -2.5429632  -12.5078835    3.6084767
| 15>     N    -3.1572241  -12.1328392    6.1783104
| 16>     C    -2.8672859  -12.2282047    7.5886211
| 17>     C    -3.6537831  -13.3601753    8.3130708
| 18>     C    -4.6537865  -13.0640416    9.1747036
| 19>     C    -5.3422778  -14.1010785    9.8231202
| 20>     C    -5.0367436  -15.4476953    9.5987830
| 21>     C    -4.0402797  -15.7519201    8.6816540
| 22>     O    -3.7390140  -16.9811175    8.3328995
| 23>     C    -3.3577600  -14.7084039    8.0450200
| 24>     H    -1.7554973  -12.1833228   13.3506140
| 25>     H    -1.4797721  -13.2987714   12.0318985
| 26>     H    -3.0425179  -12.6271674   12.3196494
| 27>     H    -2.4198720  -10.3360886   11.7255657
| 28>     H    -0.7490668  -10.7274403   11.6601809
| 29>     H     1.4198220  -12.5631355    7.9450922
| 30>     H     1.5256009  -11.9820630    6.3805698
| 31>     H     1.3470826  -13.7364200    6.5900814
| 32>     H    -0.2697071  -12.9238308    4.7992849
| 33>     H    -4.1026881  -11.9912334    5.8436283
| 34>     H    -3.2352257  -11.2712781    7.9786241
| 35>     H    -4.9388286  -12.0278449    9.3310755
| 36>     H    -6.1124727  -13.8181421   10.5345574
| 37>     H    -5.4139182  -16.2170217   10.2660702
| 38>     H    -4.2852902  -17.6904578    8.7138827
| 39>     H    -2.6222656  -14.8956994    7.2682546
| 40> *
| 41>
| 42>                          ****END OF INPUT****

CARTESIAN COORDINATES (ANGSTROEM)
---------------------------------
  C     -1.979682  -12.357440   12.291080
  C     -1.737884  -11.142870   11.430292
  O     -1.829211  -11.427788   10.028125
  C     -1.020820  -12.260423    9.338074
  O     -0.053455  -12.779081    9.854857
  C     -1.400524  -12.306711    7.867263
  C     -0.531023  -12.618418    6.866348
  C      1.001831  -12.759516    6.950151
  N     -0.913538  -12.747430    5.561079
  C     -2.256543  -12.484812    5.213718
  S     -2.542963  -12.507883    3.608477
  N     -3.157224  -12.132839    6.178310
  C     -2.867286  -12.228205    7.588621
  C     -3.653783  -13.360175    8.313071
  C     -4.653786  -13.064042    9.174704
  C     -5.342278  -14.101078    9.823120
  C     -5.036744  -15.447695    9.598783
  C     -4.040280  -15.751920    8.681654
  O     -3.739014  -16.981117    8.332899
  C     -3.357760  -14.708404    8.045020
  H     -1.755497  -12.183323   13.350614
  H     -1.479772  -13.298771   12.031898
  H     -3.042518  -12.627167   12.319649
  H     -2.419872  -10.336089   11.725566
  H     -0.749067  -10.727440   11.660181
  H      1.419822  -12.563135    7.945092
  H      1.525601  -11.982063    6.380570
  H      1.347083  -13.736420    6.590081
  H     -0.269707  -12.923831    4.799285
  H     -4.102688  -11.991233    5.843628
  H     -3.235226  -11.271278    7.978624
  H     -4.938829  -12.027845    9.331076
  H     -6.112473  -13.818142   10.534557
  H     -5.413918  -16.217022   10.266070
  H     -4.285290  -17.690458    8.713883
  H     -2.622266  -14.895699    7.268255

 Total Charge           Charge          ....    0
 Multiplicity           Mult            ....    1
 Number of Electrons    NEL             ....  154
 Basis Dimension        Dim             ....  828

ORBITAL ENERGIES
----------------

  NO   OCC          E(Eh)            E(eV)
   0   2.0000     -91.887737     -2500.3924
   1   2.0000     -20.596637      -560.4630
   2   2.0000     -20.596609      -560.4622
   3   2.0000     -20.536569      -558.8285
   4   2.0000     -15.621931      -425.0944
   5   2.0000     -15.614818      -424.9008
   6   2.0000     -11.391659      -309.9828
   7   2.0000     -11.382963      -309.7462
   8   2.0000     -11.326222      -308.2022
   9   2.0000     -11.310687      -307.7795
  10   2.0000     -11.300619      -307.5055
  11   2.0000     -11.298732      -307.4541
  12   2.0000     -11.252243      -306.1891
  13   2.0000     -11.250559      -306.1433
  14   2.0000     -11.249393      -306.1116
  15   2.0000     -11.245764      -306.0128
  16   2.0000     -11.238154      -305.8057
  17   2.0000     -11.230675      -305.6022
  18   2.0000     -11.227595      -305.5184
  19   2.0000     -11.218820      -305.2796
  20   2.0000      -8.893955      -242.0168
  21   2.0000      -6.575582      -178.9307
  22   2.0000      -6.573568      -178.8759
  23   2.0000      -6.572913      -178.8581
  24   2.0000      -1.453441       -39.5501
  25   2.0000      -1.430891       -38.9365
  26   2.0000      -1.352084       -36.7921
  27   2.0000      -1.337506       -36.3954
  28   2.0000      -1.247367       -33.9426
  29   2.0000      -1.161693       -31.6113
  30   2.0000      -1.116562       -30.3832
  31   2.0000      -1.042676       -28.3727
  32   2.0000      -1.038846       -28.2684
  33   2.0000      -1.013436       -27.5770
  34   2.0000      -0.995235       -27.0817
  35   2.0000      -0.986891       -26.8547
  36   2.0000      -0.921930       -25.0870
  37   2.0000      -0.899678       -24.4815
  38   2.0000      -0.847106       -23.0509
  39   2.0000      -0.841148       -22.8888
  40   2.0000      -0.833523       -22.6813
  41   2.0000      -0.816868       -22.2281
  42   2.0000      -0.754280       -20.5250
  43   2.0000      -0.743509       -20.2319
  44   2.0000      -0.724246       -19.7077
  45   2.0000      -0.697157       -18.9706
  46   2.0000      -0.691368       -18.8131
  47   2.0000      -0.677281       -18.4298
  48   2.0000      -0.673344       -18.3226
  49   2.0000      -0.667992       -18.1770
  50   2.0000      -0.646985       -17.6054
  51   2.0000      -0.638278       -17.3684
  52   2.0000      -0.635633       -17.2965
  53   2.0000      -0.611491       -16.6395
  54   2.0000      -0.610383       -16.6094
  55   2.0000      -0.601487       -16.3673
  56   2.0000      -0.595686       -16.2094
  57   2.0000      -0.571119       -15.5409
  58   2.0000      -0.567056       -15.4304
  59   2.0000      -0.559871       -15.2349
  60   2.0000      -0.554675       -15.0935
  61   2.0000      -0.539653       -14.6847
  62   2.0000      -0.532814       -14.4986
  63   2.0000      -0.521005       -14.1773
  64   2.0000      -0.517754       -14.0888
  65   2.0000      -0.508123       -13.8267
  66   2.0000      -0.497669       -13.5423
  67   2.0000      -0.493205       -13.4208
  68   2.0000      -0.481905       -13.1133
  69   2.0000      -0.465557       -12.6684
  70   2.0000      -0.452339       -12.3088
  71   2.0000      -0.441927       -12.0254
  72   2.0000      -0.350363        -9.5339
  73   2.0000      -0.348912        -9.4944
  74   2.0000      -0.328187        -8.9304
  75   2.0000      -0.319356        -8.6901
  76   2.0000      -0.313664        -8.5352
  77   0.0000       0.085951         2.3389
  78   0.0000       0.111023         3.0211
  79   0.0000       0.124233         3.3806
  80   0.0000       0.132130         3.5954
  81   0.0000       0.135455         3.6859

MULLIKEN ATOMIC CHARGES
-----------------------
   0 C :   -0.304266
   1 C :    0.039441
   2 O :   -0.343730
   3 C :    0.444455
   4 O :   -0.423113
   5 C :   -0.187912
   6 C :    0.136318
   7 C :   -0.305182
   8 N :   -0.119405
   9 C :    0.211804
  10 S :   -0.437568
  11 N :   -0.184384
  12 C :    0.018324
  13 C :    0.060534
  14 C :   -0.216138
  15 C :   -0.114046
  16 C :   -0.286687
  17 C :    0.317831
  18 O :   -0.337625
  19 C :   -0.256670
  20 H :    0.098974
  21 H :    0.126960
  22 H :    0.085450
  23 H :    0.114300
  24 H :    0.094586
  25 H :    0.138910
  26 H :    0.110067
  27 H :    0.113370
  28 H :    0.209886
  29 H :    0.198174
  30 H :    0.156279
  31 H :    0.146119
  32 H :    0.153772
  33 H :    0.137001
  34 H :    0.243985
  35 H :    0.160186
Sum of atomic charges:    0.0000000

LOEWDIN ATOMIC CHARGES
----------------------
   0 C :    0.095323
   1 C :   -0.029573
   2 O :    0.324637
   3 C :   -0.428222
   4 O :    0.103763
   5 C :   -0.099559
   6 C :   -0.086849
   7 C :    0.130498
   8 N :    0.396285
   9 C :   -0.441715
  10 S :   -0.008125
  11 N :    0.409270
  12 C :   -0.076803
  13 C :   -0.045318
  14 C :   -0.002125
  15 C :    0.047945
  16 C :   -0.000693
  17 C :   -0.232649
  18 O :    0.438203
  19 C :    0.033973
  20 H :   -0.022003
  21 H :   -0.019469
  22 H :   -0.029653
  23 H :   -0.018184
  24 H :   -0.026824
  25 H :   -0.011367
  26 H :   -0.019161
  27 H :   -0.019007
  28 H :   -0.051566
  29 H :   -0.054571
  30 H :   -0.011604
  31 H :   -0.025626
  32 H :   -0.023315
  33 H :   -0.031921
  34 H :   -0.139245
  35 H :   -0.024752

  Mayer bond orders larger than 0.100000
B(  0-C ,  1-C ) :   0.9616 B(  0-C , 20-H ) :   0.9756 B(  0-C , 21-H ) :   0.9725
B(  0-C , 22-H ) :   0.9757 B(  1-C ,  2-O ) :   0.9095 B(  1-C , 23-H ) :   0.9845
B(  1-C , 24-H ) :   0.9839 B(  2-O ,  3-C ) :   1.1703 B(  3-C ,  4-O ) :   1.9913
B(  3-C ,  5-C ) :   1.0178 B(  5-C ,  6-C ) :   1.6172 B(  5-C , 12-C ) :   0.9706
B(  6-C ,  7-C ) :   0.9567 B(  6-C ,  8-N ) :   1.1900 B(  7-C , 25-H ) :   0.9725
B(  7-C , 26-H ) :   0.9700 B(  7-C , 27-H ) :   0.9710 B(  8-N ,  9-C ) :   1.1355
B(  8-N , 28-H ) :   0.9383 B(  9-C , 10-S ) :   1.6387 B(  9-C , 11-N ) :   1.3245
B( 11-N , 12-C ) :   0.9761 B( 11-N , 29-H ) :   0.9501 B( 12-C , 13-C ) :   0.9465
B( 12-C , 30-H ) :   1.0028 B( 13-C , 14-C ) :   1.3769 B( 13-C , 19-C ) :   1.3476
B( 14-C , 15-C ) :   1.3607 B( 14-C , 31-H ) :   0.9719 B( 15-C , 16-C ) :   1.3961
B( 15-C , 32-H ) :   0.9752 B( 16-C , 17-C ) :   1.3267 B( 16-C , 33-H ) :   0.9751
B( 17-C , 18-O ) :   1.1552 B( 17-C , 19-C ) :   1.3704 B( 18-O , 34-H ) :   0.9722
B( 19-C , 35-H ) :   0.9614

MP2 TOTAL ENERGY:    -1274.318250635 Eh
FINAL SINGLE POINT ENERGY     -1274.318250635245

DIPOLE MOMENT
-------------
                                X             Y             Z
Electronic contribution:     -2.94404      -1.58694     -16.14617
Nuclear contribution   :      2.47514       1.48603      17.94446
                        -----------------------------------------
Total Dipole Moment    :     -0.46890      -0.10091       1.79829
                        -----------------------------------------
Magnitude (a.u.)       :      1.86116
Magnitude (Debye)      :      4.73068

Rotational constants in cm-1:     0.011990     0.008557     0.006241
Rotational constants in MHz :   359.444671   256.523718   187.115256

                             ****ORCA TERMINATED NORMALLY****
TOTAL RUN TIME: 0 days 2 hours 7 minutes 2 seconds 421 msec
