                         Program Version 5.0.0 -  RELEASE  -
|  1> ! RI-MP2 cc-pVTZ cc-pVTZ/c TightSCF KeepDens NoKeepInts
|  2>
|  3> *xyz  0  1
|  4>     C    12.5061292   -4.7979614  -10.4746934
|  5>     C    12.1653919   -3.2718212  -10.7361609
|  6>     O    10.8823982   -3.2375597  -11.4442698
|  7>     C    10.4224118   -2.0271200  -11.8329173
|  8>     O    11.0634903   -0.9853114  -11.7651443
|  9>     C     9.0144594   -2.0338891  -12.2809103
| 10>     C     8.3823958   -0.8977238  -12.8061258
| 11>     C     9.1073101    0.4388572  -13.0896946
| 12>     N     7.0314275   -0.9884532  -13.1555719
| 13>     C     6.2250624   -2.0469904  -12.8656809
| 14>     S     4.5943980   -1.9621420  -13.0214834
| 15>     N     6.7934696   -3.1873571  -12.2919482
| 16>     C     8.2217132   -3.3691960  -12.2441934
| 17>     C     8.6314390   -4.3413510  -13.3213049
| 18>     C     8.2001565   -4.2689239  -14.6675893
| 19>     C     8.4501870   -5.2629462  -15.6145727
| 20>     C     9.1888887   -6.4001632  -15.2440497
| 21>     C     9.7408493   -6.4107617  -13.9304926
| 22>     O    10.4417011   -7.5299542  -13.4781008
| 23>     C     9.4456086   -5.4229543  -12.9634535
| 24>     H    12.4763579   -5.3077201  -11.4454917
| 25>     H    11.7407462   -5.3665193   -9.9323573
| 26>     H    13.5067589   -4.9554173  -10.0538156
| 27>     H    12.1814728   -2.7216989   -9.7873208
| 28>     H    12.9662448   -2.8417937  -11.3500831
| 29>     H     9.6551209    0.9114372  -12.2652164
| 30>     H     8.2820301    1.1491212  -13.2224653
| 31>     H     9.6673995    0.3341258  -14.0269890
| 32>     H     6.5311909   -0.1880979  -13.5232145
| 33>     H     6.1924318   -3.9928324  -12.1657355
| 34>     H     8.4678823   -3.8828424  -11.3067726
| 35>     H     7.6318764   -3.3933134  -14.9671904
| 36>     H     8.1274692   -5.2024623  -16.6497508
| 37>     H     9.3568260   -7.2271407  -15.9276469
| 38>     H    10.8107782   -7.3686326  -12.5923884
| 39>     H     9.8590967   -5.5270693  -11.9646597
| 40> *
| 41>
| 42>                          ****END OF INPUT****

CARTESIAN COORDINATES (ANGSTROEM)
---------------------------------
  C     12.506129   -4.797961  -10.474693
  C     12.165392   -3.271821  -10.736161
  O     10.882398   -3.237560  -11.444270
  C     10.422412   -2.027120  -11.832917
  O     11.063490   -0.985311  -11.765144
  C      9.014459   -2.033889  -12.280910
  C      8.382396   -0.897724  -12.806126
  C      9.107310    0.438857  -13.089695
  N      7.031427   -0.988453  -13.155572
  C      6.225062   -2.046990  -12.865681
  S      4.594398   -1.962142  -13.021483
  N      6.793470   -3.187357  -12.291948
  C      8.221713   -3.369196  -12.244193
  C      8.631439   -4.341351  -13.321305
  C      8.200157   -4.268924  -14.667589
  C      8.450187   -5.262946  -15.614573
  C      9.188889   -6.400163  -15.244050
  C      9.740849   -6.410762  -13.930493
  O     10.441701   -7.529954  -13.478101
  C      9.445609   -5.422954  -12.963453
  H     12.476358   -5.307720  -11.445492
  H     11.740746   -5.366519   -9.932357
  H     13.506759   -4.955417  -10.053816
  H     12.181473   -2.721699   -9.787321
  H     12.966245   -2.841794  -11.350083
  H      9.655121    0.911437  -12.265216
  H      8.282030    1.149121  -13.222465
  H      9.667400    0.334126  -14.026989
  H      6.531191   -0.188098  -13.523214
  H      6.192432   -3.992832  -12.165735
  H      8.467882   -3.882842  -11.306773
  H      7.631876   -3.393313  -14.967190
  H      8.127469   -5.202462  -16.649751
  H      9.356826   -7.227141  -15.927647
  H     10.810778   -7.368633  -12.592388
  H      9.859097   -5.527069  -11.964660

 Total Charge           Charge          ....    0
 Multiplicity           Mult            ....    1
 Number of Electrons    NEL             ....  154
 Basis Dimension        Dim             ....  828

ORBITAL ENERGIES
----------------

  NO   OCC          E(Eh)            E(eV)
   0   2.0000     -91.893787     -2500.5571
   1   2.0000     -20.617112      -561.0201
   2   2.0000     -20.586532      -560.1880
   3   2.0000     -20.538577      -558.8831
   4   2.0000     -15.640531      -425.6005
   5   2.0000     -15.607926      -424.7133
   6   2.0000     -11.393833      -310.0420
   7   2.0000     -11.389138      -309.9142
   8   2.0000     -11.348155      -308.7990
   9   2.0000     -11.314303      -307.8778
  10   2.0000     -11.313823      -307.8648
  11   2.0000     -11.301839      -307.5387
  12   2.0000     -11.260888      -306.4243
  13   2.0000     -11.258673      -306.3641
  14   2.0000     -11.255045      -306.2653
  15   2.0000     -11.249581      -306.1167
  16   2.0000     -11.247292      -306.0544
  17   2.0000     -11.240302      -305.8642
  18   2.0000     -11.239378      -305.8390
  19   2.0000     -11.234993      -305.7197
  20   2.0000      -8.899391      -242.1647
  21   2.0000      -6.580974      -179.0774
  22   2.0000      -6.578983      -179.0232
  23   2.0000      -6.578336      -179.0056
  24   2.0000      -1.458366       -39.6842
  25   2.0000      -1.390159       -37.8281
  26   2.0000      -1.355989       -36.8983
  27   2.0000      -1.343696       -36.5638
  28   2.0000      -1.245261       -33.8853
  29   2.0000      -1.151664       -31.3384
  30   2.0000      -1.114323       -30.3223
  31   2.0000      -1.043781       -28.4027
  32   2.0000      -1.041776       -28.3482
  33   2.0000      -1.005172       -27.3521
  34   2.0000      -0.993164       -27.0254
  35   2.0000      -0.990096       -26.9419
  36   2.0000      -0.920550       -25.0494
  37   2.0000      -0.896620       -24.3983
  38   2.0000      -0.850920       -23.1547
  39   2.0000      -0.843463       -22.9518
  40   2.0000      -0.833432       -22.6788
  41   2.0000      -0.808437       -21.9987
  42   2.0000      -0.772471       -21.0200
  43   2.0000      -0.730082       -19.8665
  44   2.0000      -0.717870       -19.5342
  45   2.0000      -0.699015       -19.0212
  46   2.0000      -0.685612       -18.6565
  47   2.0000      -0.682227       -18.5643
  48   2.0000      -0.675563       -18.3830
  49   2.0000      -0.662938       -18.0395
  50   2.0000      -0.650125       -17.6908
  51   2.0000      -0.642973       -17.4962
  52   2.0000      -0.631169       -17.1750
  53   2.0000      -0.609345       -16.5811
  54   2.0000      -0.601337       -16.3632
  55   2.0000      -0.591102       -16.0847
  56   2.0000      -0.583285       -15.8720
  57   2.0000      -0.582970       -15.8634
  58   2.0000      -0.574063       -15.6211
  59   2.0000      -0.569454       -15.4956
  60   2.0000      -0.559720       -15.2308
  61   2.0000      -0.559449       -15.2234
  62   2.0000      -0.530546       -14.4369
  63   2.0000      -0.521339       -14.1864
  64   2.0000      -0.520245       -14.1566
  65   2.0000      -0.516406       -14.0521
  66   2.0000      -0.507702       -13.8153
  67   2.0000      -0.501316       -13.6415
  68   2.0000      -0.479564       -13.0496
  69   2.0000      -0.471076       -12.8186
  70   2.0000      -0.460730       -12.5371
  71   2.0000      -0.447968       -12.1898
  72   2.0000      -0.352992        -9.6054
  73   2.0000      -0.346346        -9.4246
  74   2.0000      -0.333199        -9.0668
  75   2.0000      -0.324639        -8.8339
  76   2.0000      -0.308541        -8.3958
  77   0.0000       0.065089         1.7712
  78   0.0000       0.113755         3.0954
  79   0.0000       0.118127         3.2144
  80   0.0000       0.125327         3.4103
  81   0.0000       0.132236         3.5983

MULLIKEN ATOMIC CHARGES
-----------------------
   0 C :   -0.316078
   1 C :    0.047557
   2 O :   -0.336257
   3 C :    0.451883
   4 O :   -0.448461
   5 C :   -0.151766
   6 C :    0.119394
   7 C :   -0.269411
   8 N :   -0.113015
   9 C :    0.185657
  10 S :   -0.422976
  11 N :   -0.187856
  12 C :   -0.010106
  13 C :    0.068323
  14 C :   -0.226051
  15 C :   -0.118891
  16 C :   -0.228031
  17 C :    0.275071
  18 O :   -0.382192
  19 C :   -0.243519
  20 H :    0.094169
  21 H :    0.101442
  22 H :    0.122772
  23 H :    0.102241
  24 H :    0.106191
  25 H :    0.158702
  26 H :    0.079130
  27 H :    0.131126
  28 H :    0.203112
  29 H :    0.193757
  30 H :    0.151347
  31 H :    0.151794
  32 H :    0.163755
  33 H :    0.167597
  34 H :    0.240932
  35 H :    0.138656
Sum of atomic charges:    0.0000000

LOEWDIN ATOMIC CHARGES
----------------------
   0 C :    0.110626
   1 C :    0.023487
   2 O :    0.305034
   3 C :   -0.442467
   4 O :    0.088781
   5 C :   -0.092628
   6 C :   -0.027932
   7 C :    0.139891
   8 N :    0.403502
   9 C :   -0.454906
  10 S :   -0.009148
  11 N :    0.393514
  12 C :   -0.087051
  13 C :   -0.045230
  14 C :    0.013294
  15 C :    0.037429
  16 C :    0.024249
  17 C :   -0.147016
  18 O :    0.349649
  19 C :    0.009574
  20 H :   -0.031562
  21 H :   -0.034332
  22 H :   -0.024656
  23 H :   -0.031337
  24 H :   -0.026919
  25 H :   -0.006746
  26 H :   -0.028893
  27 H :   -0.009548
  28 H :   -0.050664
  29 H :   -0.060595
  30 H :   -0.010479
  31 H :   -0.031099
  32 H :   -0.019599
  33 H :   -0.027104
  34 H :   -0.163742
  35 H :   -0.035377

  Mayer bond orders larger than 0.100000
B(  0-C ,  1-C ) :   0.9701 B(  0-C , 20-H ) :   0.9745 B(  0-C , 21-H ) :   0.9754
B(  0-C , 22-H ) :   0.9778 B(  1-C ,  2-O ) :   0.9021 B(  1-C , 23-H ) :   0.9766
B(  1-C , 24-H ) :   0.9761 B(  2-O ,  3-C ) :   1.1962 B(  3-C ,  4-O ) :   1.9406
B(  3-C ,  5-C ) :   1.0556 B(  5-C ,  6-C ) :   1.6436 B(  5-C , 12-C ) :   0.9665
B(  6-C ,  7-C ) :   0.9521 B(  6-C ,  8-N ) :   1.1726 B(  7-C , 25-H ) :   0.9587
B(  7-C , 26-H ) :   0.9860 B(  7-C , 27-H ) :   0.9653 B(  8-N ,  9-C ) :   1.1836
B(  8-N , 28-H ) :   0.9421 B(  9-C , 10-S ) :   1.6439 B(  9-C , 11-N ) :   1.2688
B( 11-N , 12-C ) :   0.9922 B( 11-N , 29-H ) :   0.9527 B( 12-C , 13-C ) :   0.9167
B( 12-C , 30-H ) :   1.0123 B( 13-C , 14-C ) :   1.3617 B( 13-C , 19-C ) :   1.3591
B( 14-C , 15-C ) :   1.4181 B( 14-C , 31-H ) :   0.9695 B( 15-C , 16-C ) :   1.3636
B( 15-C , 32-H ) :   0.9715 B( 16-C , 17-C ) :   1.3767 B( 16-C , 33-H ) :   0.9642
B( 17-C , 18-O ) :   1.0589 B( 17-C , 19-C ) :   1.3588 B( 18-O , 34-H ) :   0.9796
B( 19-C , 35-H ) :   0.9656

MP2 TOTAL ENERGY:    -1274.321258198 Eh
FINAL SINGLE POINT ENERGY     -1274.321258198263

DIPOLE MOMENT
-------------
                                X             Y             Z
Electronic contribution:    -14.10679       2.56823      -3.34768
Nuclear contribution   :     15.66092      -2.52811       3.86046
                        -----------------------------------------
Total Dipole Moment    :      1.55414       0.04012       0.51278
                        -----------------------------------------
Magnitude (a.u.)       :      1.63704
Magnitude (Debye)      :      4.16102

Rotational constants in cm-1:     0.011964     0.008411     0.005700
Rotational constants in MHz :   358.657468   252.151677   170.889370

                             ****ORCA TERMINATED NORMALLY****
TOTAL RUN TIME: 0 days 2 hours 6 minutes 21 seconds 385 msec
