                         Program Version 5.0.0 -  RELEASE  -
|  1> ! RI-MP2 cc-pVTZ cc-pVTZ/c TightSCF KeepDens NoKeepInts
|  2>
|  3> %pointcharges "srfp_output"
|  4>
|  5> *xyz  0  1
|  6>     C    12.5061292   -4.7979614  -10.4746934
|  7>     C    12.1653919   -3.2718212  -10.7361609
|  8>     O    10.8823982   -3.2375597  -11.4442698
|  9>     C    10.4224118   -2.0271200  -11.8329173
| 10>     O    11.0634903   -0.9853114  -11.7651443
| 11>     C     9.0144594   -2.0338891  -12.2809103
| 12>     C     8.3823958   -0.8977238  -12.8061258
| 13>     C     9.1073101    0.4388572  -13.0896946
| 14>     N     7.0314275   -0.9884532  -13.1555719
| 15>     C     6.2250624   -2.0469904  -12.8656809
| 16>     S     4.5943980   -1.9621420  -13.0214834
| 17>     N     6.7934696   -3.1873571  -12.2919482
| 18>     C     8.2217132   -3.3691960  -12.2441934
| 19>     C     8.6314390   -4.3413510  -13.3213049
| 20>     C     8.2001565   -4.2689239  -14.6675893
| 21>     C     8.4501870   -5.2629462  -15.6145727
| 22>     C     9.1888887   -6.4001632  -15.2440497
| 23>     C     9.7408493   -6.4107617  -13.9304926
| 24>     O    10.4417011   -7.5299542  -13.4781008
| 25>     C     9.4456086   -5.4229543  -12.9634535
| 26>     H    12.4763579   -5.3077201  -11.4454917
| 27>     H    11.7407462   -5.3665193   -9.9323573
| 28>     H    13.5067589   -4.9554173  -10.0538156
| 29>     H    12.1814728   -2.7216989   -9.7873208
| 30>     H    12.9662448   -2.8417937  -11.3500831
| 31>     H     9.6551209    0.9114372  -12.2652164
| 32>     H     8.2820301    1.1491212  -13.2224653
| 33>     H     9.6673995    0.3341258  -14.0269890
| 34>     H     6.5311909   -0.1880979  -13.5232145
| 35>     H     6.1924318   -3.9928324  -12.1657355
| 36>     H     8.4678823   -3.8828424  -11.3067726
| 37>     H     7.6318764   -3.3933134  -14.9671904
| 38>     H     8.1274692   -5.2024623  -16.6497508
| 39>     H     9.3568260   -7.2271407  -15.9276469
| 40>     H    10.8107782   -7.3686326  -12.5923884
| 41>     H     9.8590967   -5.5270693  -11.9646597
| 42> *
| 43>
| 44>                          ****END OF INPUT****

CARTESIAN COORDINATES (ANGSTROEM)
---------------------------------
  C     12.506129   -4.797961  -10.474693
  C     12.165392   -3.271821  -10.736161
  O     10.882398   -3.237560  -11.444270
  C     10.422412   -2.027120  -11.832917
  O     11.063490   -0.985311  -11.765144
  C      9.014459   -2.033889  -12.280910
  C      8.382396   -0.897724  -12.806126
  C      9.107310    0.438857  -13.089695
  N      7.031427   -0.988453  -13.155572
  C      6.225062   -2.046990  -12.865681
  S      4.594398   -1.962142  -13.021483
  N      6.793470   -3.187357  -12.291948
  C      8.221713   -3.369196  -12.244193
  C      8.631439   -4.341351  -13.321305
  C      8.200157   -4.268924  -14.667589
  C      8.450187   -5.262946  -15.614573
  C      9.188889   -6.400163  -15.244050
  C      9.740849   -6.410762  -13.930493
  O     10.441701   -7.529954  -13.478101
  C      9.445609   -5.422954  -12.963453
  H     12.476358   -5.307720  -11.445492
  H     11.740746   -5.366519   -9.932357
  H     13.506759   -4.955417  -10.053816
  H     12.181473   -2.721699   -9.787321
  H     12.966245   -2.841794  -11.350083
  H      9.655121    0.911437  -12.265216
  H      8.282030    1.149121  -13.222465
  H      9.667400    0.334126  -14.026989
  H      6.531191   -0.188098  -13.523214
  H      6.192432   -3.992832  -12.165735
  H      8.467882   -3.882842  -11.306773
  H      7.631876   -3.393313  -14.967190
  H      8.127469   -5.202462  -16.649751
  H      9.356826   -7.227141  -15.927647
  H     10.810778   -7.368633  -12.592388
  H      9.859097   -5.527069  -11.964660

 Total Charge           Charge          ....    0
 Multiplicity           Mult            ....    1
 Number of Electrons    NEL             ....  154
 Basis Dimension        Dim             ....  828

ORBITAL ENERGIES
----------------

  NO   OCC          E(Eh)            E(eV)
   0   2.0000     -90.737457     -2469.0917
   1   2.0000     -19.449823      -529.2566
   2   2.0000     -19.417887      -528.3876
   3   2.0000     -19.386619      -527.5367
   4   2.0000     -14.466789      -393.6613
   5   2.0000     -14.438997      -392.9051
   6   2.0000     -10.239318      -278.6260
   7   2.0000     -10.229463      -278.3578
   8   2.0000     -10.179433      -276.9965
   9   2.0000     -10.148116      -276.1443
  10   2.0000     -10.132164      -275.7102
  11   2.0000     -10.129789      -275.6456
  12   2.0000     -10.090057      -274.5644
  13   2.0000     -10.088311      -274.5169
  14   2.0000     -10.082433      -274.3569
  15   2.0000     -10.077890      -274.2333
  16   2.0000     -10.075474      -274.1676
  17   2.0000     -10.071168      -274.0504
  18   2.0000     -10.067677      -273.9554
  19   2.0000     -10.055364      -273.6204
  20   2.0000      -7.744310      -210.7334
  21   2.0000      -5.426215      -147.6548
  22   2.0000      -5.424168      -147.5991
  23   2.0000      -5.423644      -147.5849
  24   2.0000      -0.296340        -8.0638
  25   2.0000      -0.222848        -6.0640
  26   2.0000      -0.201314        -5.4780
  27   2.0000      -0.173044        -4.7088
  28   2.0000      -0.073175        -1.9912
  29   2.0000       0.013901         0.3783
  30   2.0000       0.053309         1.4506
  31   2.0000       0.126175         3.4334
  32   2.0000       0.135980         3.7002
  33   2.0000       0.162374         4.4184
  34   2.0000       0.173420         4.7190
  35   2.0000       0.181689         4.9440
  36   2.0000       0.249025         6.7763
  37   2.0000       0.281833         7.6691
  38   2.0000       0.318808         8.6752
  39   2.0000       0.324766         8.8373
  40   2.0000       0.341615         9.2958
  41   2.0000       0.358995         9.7688
  42   2.0000       0.397118        10.8061
  43   2.0000       0.438332        11.9276
  44   2.0000       0.450162        12.2495
  45   2.0000       0.469460        12.7747
  46   2.0000       0.473186        12.8760
  47   2.0000       0.486078        13.2268
  48   2.0000       0.496168        13.5014
  49   2.0000       0.505966        13.7680
  50   2.0000       0.516832        14.0637
  51   2.0000       0.529547        14.4097
  52   2.0000       0.539813        14.6891
  53   2.0000       0.563573        15.3356
  54   2.0000       0.569120        15.4866
  55   2.0000       0.577582        15.7168
  56   2.0000       0.582453        15.8493
  57   2.0000       0.594722        16.1832
  58   2.0000       0.596987        16.2448
  59   2.0000       0.602693        16.4001
  60   2.0000       0.610101        16.6017
  61   2.0000       0.622417        16.9368
  62   2.0000       0.634777        17.2732
  63   2.0000       0.643085        17.4992
  64   2.0000       0.655642        17.8409
  65   2.0000       0.658998        17.9322
  66   2.0000       0.662912        18.0388
  67   2.0000       0.668111        18.1802
  68   2.0000       0.686211        18.6728
  69   2.0000       0.696524        18.9534
  70   2.0000       0.703762        19.1503
  71   2.0000       0.711883        19.3713
  72   2.0000       0.809391        22.0247
  73   2.0000       0.816351        22.2140
  74   2.0000       0.822072        22.3697
  75   2.0000       0.834388        22.7049
  76   2.0000       0.852570        23.1996
  77   0.0000       1.229098        33.4455
  78   0.0000       1.284531        34.9539
  79   0.0000       1.295211        35.2445
  80   0.0000       1.315677        35.8014
  81   0.0000       1.318549        35.8795

MULLIKEN ATOMIC CHARGES
-----------------------
   0 C :   -0.304354
   1 C :    0.036376
   2 O :   -0.329199
   3 C :    0.491895
   4 O :   -0.565532
   5 C :   -0.187280
   6 C :    0.145213
   7 C :   -0.269369
   8 N :   -0.122970
   9 C :    0.281514
  10 S :   -0.603373
  11 N :   -0.199081
  12 C :    0.018549
  13 C :    0.030567
  14 C :   -0.255506
  15 C :   -0.121806
  16 C :   -0.266926
  17 C :    0.251055
  18 O :   -0.461241
  19 C :   -0.266997
  20 H :    0.093287
  21 H :    0.111697
  22 H :    0.131326
  23 H :    0.113167
  24 H :    0.106502
  25 H :    0.146136
  26 H :    0.107243
  27 H :    0.139231
  28 H :    0.261061
  29 H :    0.239684
  30 H :    0.178508
  31 H :    0.182852
  32 H :    0.193304
  33 H :    0.183297
  34 H :    0.324672
  35 H :    0.186497
Sum of atomic charges:    0.0000000

LOEWDIN ATOMIC CHARGES
----------------------
   0 C :    0.118729
   1 C :    0.023569
   2 O :    0.311727
   3 C :   -0.430081
   4 O :    0.010160
   5 C :   -0.098017
   6 C :   -0.009048
   7 C :    0.145203
   8 N :    0.421070
   9 C :   -0.427999
  10 S :   -0.123362
  11 N :    0.409165
  12 C :   -0.079158
  13 C :   -0.053214
  14 C :    0.008505
  15 C :    0.038309
  16 C :    0.006396
  17 C :   -0.170484
  18 O :    0.320125
  19 C :    0.012750
  20 H :   -0.029268
  21 H :   -0.028740
  22 H :   -0.020119
  23 H :   -0.028445
  24 H :   -0.027794
  25 H :   -0.011035
  26 H :   -0.015217
  27 H :   -0.006679
  28 H :   -0.021489
  29 H :   -0.037969
  30 H :   -0.000621
  31 H :   -0.023656
  32 H :   -0.010611
  33 H :   -0.025751
  34 H :   -0.125436
  35 H :   -0.021517

  Mayer bond orders larger than 0.100000
B(  0-C ,  1-C ) :   0.9737 B(  0-C , 20-H ) :   0.9739 B(  0-C , 21-H ) :   0.9741
B(  0-C , 22-H ) :   0.9741 B(  1-C ,  2-O ) :   0.8805 B(  1-C , 23-H ) :   0.9747
B(  1-C , 24-H ) :   0.9753 B(  2-O ,  3-C ) :   1.2342 B(  3-C ,  4-O ) :   1.8764
B(  3-C ,  5-C ) :   1.0841 B(  5-C ,  6-C ) :   1.6047 B(  5-C , 12-C ) :   0.9630
B(  6-C ,  7-C ) :   0.9473 B(  6-C ,  8-N ) :   1.1881 B(  7-C , 25-H ) :   0.9606
B(  7-C , 26-H ) :   0.9828 B(  7-C , 27-H ) :   0.9619 B(  8-N ,  9-C ) :   1.2436
B(  8-N , 28-H ) :   0.9167 B(  9-C , 10-S ) :   1.4326 B(  9-C , 11-N ) :   1.3293
B( 11-N , 12-C ) :   0.9923 B( 11-N , 29-H ) :   0.9296 B( 12-C , 13-C ) :   0.9004
B( 12-C , 30-H ) :   1.0054 B( 13-C , 14-C ) :   1.3444 B( 13-C , 19-C ) :   1.3356
B( 14-C , 15-C ) :   1.4230 B( 14-C , 31-H ) :   0.9628 B( 15-C , 16-C ) :   1.3578
B( 15-C , 32-H ) :   0.9604 B( 16-C , 17-C ) :   1.3628 B( 16-C , 33-H ) :   0.9573
B( 17-C , 18-O ) :   1.0712 B( 17-C , 19-C ) :   1.3627 B( 18-O , 34-H ) :   0.9198
B( 19-C , 35-H ) :   0.9544

MP2 TOTAL ENERGY:    -1274.418543645 Eh
FINAL SINGLE POINT ENERGY     -1274.418543644771

DIPOLE MOMENT
-------------
                                X             Y             Z
Electronic contribution:    -13.87927       2.43635      -3.07730
Nuclear contribution   :     15.66092      -2.52811       3.86046
                        -----------------------------------------
Total Dipole Moment    :      1.78166      -0.09177       0.78316
                        -----------------------------------------
Magnitude (a.u.)       :      1.94835
Magnitude (Debye)      :      4.95230

Rotational constants in cm-1:     0.011964     0.008411     0.005700
Rotational constants in MHz :   358.657468   252.151677   170.889370

                             ****ORCA TERMINATED NORMALLY****
TOTAL RUN TIME: 0 days 2 hours 12 minutes 48 seconds 70 msec
