                         Program Version 5.0.0 -  RELEASE  -
|  1> ! RI-MP2 cc-pVTZ cc-pVTZ/c TightSCF KeepDens NoKeepInts
|  2>
|  3> %pointcharges "srfp_output"
|  4>
|  5> *xyz  0  1
|  6>     C    -4.7093702   13.3756858   -9.0952310
|  7>     C    -6.2006784   13.0452802   -9.1626177
|  8>     O    -6.8714193   13.8710836   -8.2158162
|  9>     C    -7.2040997   15.1242647   -8.5267183
| 10>     O    -7.1738870   15.5305451   -9.6700477
| 11>     C    -7.9169144   15.8405969   -7.4321065
| 12>     C    -8.5722419   17.0643409   -7.6366096
| 13>     C    -8.9241427   17.7458537   -8.9706402
| 14>     N    -9.0007154   17.7253070   -6.5306165
| 15>     C    -8.7761427   17.4254777   -5.2370380
| 16>     S    -9.1356996   18.4717433   -3.9780444
| 17>     N    -8.1765657   16.2215979   -5.0207477
| 18>     C    -7.8770448   15.2183910   -6.0230678
| 19>     C    -8.7993172   13.9391217   -5.8595541
| 20>     C    -8.1934191   12.6444380   -5.9090777
| 21>     C    -9.0579645   11.4910893   -5.7548290
| 22>     C   -10.4394446   11.6238937   -5.6188315
| 23>     C   -11.0202837   12.9435458   -5.5844607
| 24>     O   -12.3723474   13.0916501   -5.4758816
| 25>     C   -10.1740478   14.1111439   -5.7328773
| 26>     H    -4.5494166   14.4382238   -9.3157267
| 27>     H    -4.2065491   12.8749654   -9.9316756
| 28>     H    -4.2149476   13.1625907   -8.1395482
| 29>     H    -6.6375569   13.1247739  -10.1656178
| 30>     H    -6.2463157   12.0082131   -8.8082188
| 31>     H    -9.4117876   17.0683708   -9.6822614
| 32>     H    -8.0393602   18.1699882   -9.4610075
| 33>     H    -9.5373585   18.6421206   -8.8161680
| 34>     H    -9.5570044   18.5461820   -6.7371934
| 35>     H    -8.0771254   15.9321850   -4.0551814
| 36>     H    -6.8098418   15.0142390   -5.8727706
| 37>     H    -7.1252840   12.4606303   -5.9776214
| 38>     H    -8.5645872   10.5278024   -5.6650885
| 39>     H   -11.0240956   10.7497682   -5.3477395
| 40>     H   -12.7838897   12.2100239   -5.4857737
| 41>     H   -10.5924683   15.0997446   -5.8971605
| 42> *
| 43>
| 44>                          ****END OF INPUT****

CARTESIAN COORDINATES (ANGSTROEM)
---------------------------------
  C     -4.709370   13.375686   -9.095231
  C     -6.200678   13.045280   -9.162618
  O     -6.871419   13.871084   -8.215816
  C     -7.204100   15.124265   -8.526718
  O     -7.173887   15.530545   -9.670048
  C     -7.916914   15.840597   -7.432106
  C     -8.572242   17.064341   -7.636610
  C     -8.924143   17.745854   -8.970640
  N     -9.000715   17.725307   -6.530616
  C     -8.776143   17.425478   -5.237038
  S     -9.135700   18.471743   -3.978044
  N     -8.176566   16.221598   -5.020748
  C     -7.877045   15.218391   -6.023068
  C     -8.799317   13.939122   -5.859554
  C     -8.193419   12.644438   -5.909078
  C     -9.057965   11.491089   -5.754829
  C    -10.439445   11.623894   -5.618831
  C    -11.020284   12.943546   -5.584461
  O    -12.372347   13.091650   -5.475882
  C    -10.174048   14.111144   -5.732877
  H     -4.549417   14.438224   -9.315727
  H     -4.206549   12.874965   -9.931676
  H     -4.214948   13.162591   -8.139548
  H     -6.637557   13.124774  -10.165618
  H     -6.246316   12.008213   -8.808219
  H     -9.411788   17.068371   -9.682261
  H     -8.039360   18.169988   -9.461007
  H     -9.537358   18.642121   -8.816168
  H     -9.557004   18.546182   -6.737193
  H     -8.077125   15.932185   -4.055181
  H     -6.809842   15.014239   -5.872771
  H     -7.125284   12.460630   -5.977621
  H     -8.564587   10.527802   -5.665088
  H    -11.024096   10.749768   -5.347739
  H    -12.783890   12.210024   -5.485774
  H    -10.592468   15.099745   -5.897161

 Total Charge           Charge          ....    0
 Multiplicity           Mult            ....    1
 Number of Electrons    NEL             ....  154
 Basis Dimension        Dim             ....  828

ORBITAL ENERGIES
----------------

  NO   OCC          E(Eh)            E(eV)
   0   2.0000     -93.501908     -2544.3163
   1   2.0000     -22.203126      -604.1778
   2   2.0000     -22.194992      -603.9564
   3   2.0000     -22.146380      -602.6336
   4   2.0000     -17.224847      -468.7119
   5   2.0000     -17.205548      -468.1868
   6   2.0000     -12.996803      -353.6610
   7   2.0000     -12.993179      -353.5624
   8   2.0000     -12.939055      -352.0896
   9   2.0000     -12.927086      -351.7639
  10   2.0000     -12.901888      -351.0782
  11   2.0000     -12.885004      -350.6188
  12   2.0000     -12.864576      -350.0629
  13   2.0000     -12.851540      -349.7082
  14   2.0000     -12.850166      -349.6708
  15   2.0000     -12.844865      -349.5265
  16   2.0000     -12.843152      -349.4799
  17   2.0000     -12.841567      -349.4368
  18   2.0000     -12.839300      -349.3751
  19   2.0000     -12.809402      -348.5616
  20   2.0000     -10.507309      -285.9184
  21   2.0000      -8.189127      -222.8375
  22   2.0000      -8.187159      -222.7839
  23   2.0000      -8.186685      -222.7710
  24   2.0000      -3.071637       -83.5835
  25   2.0000      -3.008912       -81.8767
  26   2.0000      -2.967875       -80.7600
  27   2.0000      -2.952658       -80.3459
  28   2.0000      -2.843098       -77.3646
  29   2.0000      -2.742821       -74.6360
  30   2.0000      -2.708743       -73.7087
  31   2.0000      -2.636869       -71.7528
  32   2.0000      -2.630627       -71.5830
  33   2.0000      -2.599856       -70.7457
  34   2.0000      -2.585212       -70.3472
  35   2.0000      -2.583684       -70.3056
  36   2.0000      -2.512694       -68.3739
  37   2.0000      -2.491678       -67.8020
  38   2.0000      -2.460624       -66.9570
  39   2.0000      -2.433976       -66.2318
  40   2.0000      -2.423477       -65.9462
  41   2.0000      -2.409292       -65.5602
  42   2.0000      -2.358096       -64.1670
  43   2.0000      -2.328801       -63.3699
  44   2.0000      -2.321028       -63.1584
  45   2.0000      -2.293935       -62.4211
  46   2.0000      -2.290790       -62.3356
  47   2.0000      -2.280954       -62.0679
  48   2.0000      -2.267550       -61.7032
  49   2.0000      -2.257595       -61.4323
  50   2.0000      -2.244557       -61.0775
  51   2.0000      -2.236810       -60.8667
  52   2.0000      -2.229951       -60.6801
  53   2.0000      -2.206087       -60.0307
  54   2.0000      -2.199931       -59.8632
  55   2.0000      -2.192684       -59.6660
  56   2.0000      -2.190538       -59.6076
  57   2.0000      -2.172539       -59.1178
  58   2.0000      -2.167363       -58.9769
  59   2.0000      -2.164444       -58.8975
  60   2.0000      -2.151443       -58.5437
  61   2.0000      -2.138409       -58.1891
  62   2.0000      -2.131230       -57.9937
  63   2.0000      -2.127881       -57.9026
  64   2.0000      -2.121422       -57.7268
  65   2.0000      -2.114308       -57.5332
  66   2.0000      -2.093105       -56.9563
  67   2.0000      -2.088174       -56.8221
  68   2.0000      -2.075732       -56.4835
  69   2.0000      -2.062947       -56.1356
  70   2.0000      -2.053567       -55.8804
  71   2.0000      -2.050225       -55.7895
  72   2.0000      -1.953255       -53.1508
  73   2.0000      -1.946923       -52.9785
  74   2.0000      -1.942596       -52.8607
  75   2.0000      -1.920969       -52.2722
  76   2.0000      -1.908873       -51.9431
  77   0.0000      -1.532395       -41.6986
  78   0.0000      -1.486556       -40.4512
  79   0.0000      -1.472455       -40.0675
  80   0.0000      -1.452635       -39.5282
  81   0.0000      -1.439747       -39.1775

MULLIKEN ATOMIC CHARGES
-----------------------
   0 C :   -0.290938
   1 C :    0.009832
   2 O :   -0.315649
   3 C :    0.496164
   4 O :   -0.573895
   5 C :   -0.216549
   6 C :    0.127153
   7 C :   -0.254371
   8 N :   -0.082473
   9 C :    0.262321
  10 S :   -0.612013
  11 N :   -0.194600
  12 C :    0.026234
  13 C :    0.059548
  14 C :   -0.262841
  15 C :   -0.136373
  16 C :   -0.295172
  17 C :    0.277842
  18 O :   -0.423794
  19 C :   -0.293560
  20 H :    0.092655
  21 H :    0.107649
  22 H :    0.113378
  23 H :    0.126196
  24 H :    0.125248
  25 H :    0.128741
  26 H :    0.127230
  27 H :    0.122930
  28 H :    0.254299
  29 H :    0.242156
  30 H :    0.183240
  31 H :    0.198108
  32 H :    0.192349
  33 H :    0.176769
  34 H :    0.320098
  35 H :    0.182085
Sum of atomic charges:   -0.0000000

LOEWDIN ATOMIC CHARGES
----------------------
   0 C :    0.105612
   1 C :   -0.021645
   2 O :    0.359684
   3 C :   -0.457181
   4 O :    0.015180
   5 C :   -0.104284
   6 C :   -0.033625
   7 C :    0.144326
   8 N :    0.430843
   9 C :   -0.426173
  10 S :   -0.168447
  11 N :    0.418597
  12 C :   -0.050317
  13 C :   -0.046318
  14 C :    0.020784
  15 C :    0.037100
  16 C :   -0.009249
  17 C :   -0.172948
  18 O :    0.350521
  19 C :    0.001087
  20 H :   -0.029538
  21 H :   -0.018355
  22 H :   -0.023599
  23 H :   -0.025168
  24 H :   -0.018301
  25 H :   -0.007431
  26 H :   -0.006227
  27 H :   -0.009348
  28 H :   -0.014226
  29 H :   -0.032491
  30 H :   -0.006754
  31 H :   -0.025625
  32 H :   -0.015759
  33 H :   -0.023112
  34 H :   -0.111850
  35 H :   -0.025762

  Mayer bond orders larger than 0.100000
B(  0-C ,  1-C ) :   0.9571 B(  0-C , 20-H ) :   0.9773 B(  0-C , 21-H ) :   0.9750
B(  0-C , 22-H ) :   0.9763 B(  1-C ,  2-O ) :   0.8754 B(  1-C , 23-H ) :   0.9763
B(  1-C , 24-H ) :   0.9816 B(  2-O ,  3-C ) :   1.2377 B(  3-C ,  4-O ) :   1.8761
B(  3-C ,  5-C ) :   1.1053 B(  5-C ,  6-C ) :   1.5832 B(  5-C , 12-C ) :   0.9564
B(  6-C ,  7-C ) :   0.9645 B(  6-C ,  8-N ) :   1.2023 B(  7-C , 25-H ) :   0.9643
B(  7-C , 26-H ) :   0.9566 B(  7-C , 27-H ) :   0.9832 B(  8-N ,  9-C ) :   1.2394
B(  8-N , 28-H ) :   0.9218 B(  9-C , 10-S ) :   1.4017 B(  9-C , 11-N ) :   1.3830
B( 11-N , 12-C ) :   0.9758 B( 11-N , 29-H ) :   0.9292 B( 12-C , 13-C ) :   0.9418
B( 12-C , 30-H ) :   0.9929 B( 13-C , 14-C ) :   1.3685 B( 13-C , 19-C ) :   1.3658
B( 14-C , 15-C ) :   1.3760 B( 14-C , 31-H ) :   0.9529 B( 15-C , 16-C ) :   1.3620
B( 15-C , 32-H ) :   0.9599 B( 16-C , 17-C ) :   1.3457 B( 16-C , 33-H ) :   0.9681
B( 17-C , 18-O ) :   1.1140 B( 17-C , 19-C ) :   1.3634 B( 18-O , 34-H ) :   0.9199
B( 19-C , 35-H ) :   0.9490

MP2 TOTAL ENERGY:    -1274.419259836 Eh
FINAL SINGLE POINT ENERGY     -1274.419259835510

DIPOLE MOMENT
-------------
                                X             Y             Z
Electronic contribution:     -8.45140       7.71406      11.25408
Nuclear contribution   :      8.87618     -10.26474     -12.33479
                        -----------------------------------------
Total Dipole Moment    :      0.42479      -2.55068      -1.08071
                        -----------------------------------------
Magnitude (a.u.)       :      2.80256
Magnitude (Debye)      :      7.12355

Rotational constants in cm-1:     0.010224     0.009084     0.005835
Rotational constants in MHz :   306.520031   272.340793   174.916581

                             ****ORCA TERMINATED NORMALLY****
TOTAL RUN TIME: 0 days 1 hours 59 minutes 37 seconds 490 msec
