                         Program Version 5.0.0 -  RELEASE  -
|  1> ! RI-MP2 cc-pVTZ cc-pVTZ/c TightSCF KeepDens NoKeepInts
|  2>
|  3> *xyz  0  1
|  4>     C    -4.7093702   13.3756858   -9.0952310
|  5>     C    -6.2006784   13.0452802   -9.1626177
|  6>     O    -6.8714193   13.8710836   -8.2158162
|  7>     C    -7.2040997   15.1242647   -8.5267183
|  8>     O    -7.1738870   15.5305451   -9.6700477
|  9>     C    -7.9169144   15.8405969   -7.4321065
| 10>     C    -8.5722419   17.0643409   -7.6366096
| 11>     C    -8.9241427   17.7458537   -8.9706402
| 12>     N    -9.0007154   17.7253070   -6.5306165
| 13>     C    -8.7761427   17.4254777   -5.2370380
| 14>     S    -9.1356996   18.4717433   -3.9780444
| 15>     N    -8.1765657   16.2215979   -5.0207477
| 16>     C    -7.8770448   15.2183910   -6.0230678
| 17>     C    -8.7993172   13.9391217   -5.8595541
| 18>     C    -8.1934191   12.6444380   -5.9090777
| 19>     C    -9.0579645   11.4910893   -5.7548290
| 20>     C   -10.4394446   11.6238937   -5.6188315
| 21>     C   -11.0202837   12.9435458   -5.5844607
| 22>     O   -12.3723474   13.0916501   -5.4758816
| 23>     C   -10.1740478   14.1111439   -5.7328773
| 24>     H    -4.5494166   14.4382238   -9.3157267
| 25>     H    -4.2065491   12.8749654   -9.9316756
| 26>     H    -4.2149476   13.1625907   -8.1395482
| 27>     H    -6.6375569   13.1247739  -10.1656178
| 28>     H    -6.2463157   12.0082131   -8.8082188
| 29>     H    -9.4117876   17.0683708   -9.6822614
| 30>     H    -8.0393602   18.1699882   -9.4610075
| 31>     H    -9.5373585   18.6421206   -8.8161680
| 32>     H    -9.5570044   18.5461820   -6.7371934
| 33>     H    -8.0771254   15.9321850   -4.0551814
| 34>     H    -6.8098418   15.0142390   -5.8727706
| 35>     H    -7.1252840   12.4606303   -5.9776214
| 36>     H    -8.5645872   10.5278024   -5.6650885
| 37>     H   -11.0240956   10.7497682   -5.3477395
| 38>     H   -12.7838897   12.2100239   -5.4857737
| 39>     H   -10.5924683   15.0997446   -5.8971605
| 40> *
| 41>
| 42>                          ****END OF INPUT****

CARTESIAN COORDINATES (ANGSTROEM)
---------------------------------
  C     -4.709370   13.375686   -9.095231
  C     -6.200678   13.045280   -9.162618
  O     -6.871419   13.871084   -8.215816
  C     -7.204100   15.124265   -8.526718
  O     -7.173887   15.530545   -9.670048
  C     -7.916914   15.840597   -7.432106
  C     -8.572242   17.064341   -7.636610
  C     -8.924143   17.745854   -8.970640
  N     -9.000715   17.725307   -6.530616
  C     -8.776143   17.425478   -5.237038
  S     -9.135700   18.471743   -3.978044
  N     -8.176566   16.221598   -5.020748
  C     -7.877045   15.218391   -6.023068
  C     -8.799317   13.939122   -5.859554
  C     -8.193419   12.644438   -5.909078
  C     -9.057965   11.491089   -5.754829
  C    -10.439445   11.623894   -5.618831
  C    -11.020284   12.943546   -5.584461
  O    -12.372347   13.091650   -5.475882
  C    -10.174048   14.111144   -5.732877
  H     -4.549417   14.438224   -9.315727
  H     -4.206549   12.874965   -9.931676
  H     -4.214948   13.162591   -8.139548
  H     -6.637557   13.124774  -10.165618
  H     -6.246316   12.008213   -8.808219
  H     -9.411788   17.068371   -9.682261
  H     -8.039360   18.169988   -9.461007
  H     -9.537358   18.642121   -8.816168
  H     -9.557004   18.546182   -6.737193
  H     -8.077125   15.932185   -4.055181
  H     -6.809842   15.014239   -5.872771
  H     -7.125284   12.460630   -5.977621
  H     -8.564587   10.527802   -5.665088
  H    -11.024096   10.749768   -5.347739
  H    -12.783890   12.210024   -5.485774
  H    -10.592468   15.099745   -5.897161

 Total Charge           Charge          ....    0
 Multiplicity           Mult            ....    1
 Number of Electrons    NEL             ....  154
 Basis Dimension        Dim             ....  828

ORBITAL ENERGIES
----------------

  NO   OCC          E(Eh)            E(eV)
   0   2.0000     -91.890260     -2500.4611
   1   2.0000     -20.600982      -560.5812
   2   2.0000     -20.599584      -560.5432
   3   2.0000     -20.530466      -558.6624
   4   2.0000     -15.632994      -425.3954
   5   2.0000     -15.608242      -424.7219
   6   2.0000     -11.386401      -309.8397
   7   2.0000     -11.383568      -309.7626
   8   2.0000     -11.342362      -308.6413
   9   2.0000     -11.328825      -308.2730
  10   2.0000     -11.307808      -307.7011
  11   2.0000     -11.297143      -307.4109
  12   2.0000     -11.266035      -306.5644
  13   2.0000     -11.259089      -306.3754
  14   2.0000     -11.256407      -306.3024
  15   2.0000     -11.254733      -306.2569
  16   2.0000     -11.245764      -306.0128
  17   2.0000     -11.244644      -305.9823
  18   2.0000     -11.242570      -305.9259
  19   2.0000     -11.226980      -305.5016
  20   2.0000      -8.894411      -242.0292
  21   2.0000      -6.575905      -178.9395
  22   2.0000      -6.573952      -178.8863
  23   2.0000      -6.573373      -178.8706
  24   2.0000      -1.465396       -39.8754
  25   2.0000      -1.411998       -38.4224
  26   2.0000      -1.358166       -36.9576
  27   2.0000      -1.353422       -36.8285
  28   2.0000      -1.249058       -33.9886
  29   2.0000      -1.143361       -31.1124
  30   2.0000      -1.110956       -30.2307
  31   2.0000      -1.046127       -28.4666
  32   2.0000      -1.034329       -28.1455
  33   2.0000      -1.004068       -27.3221
  34   2.0000      -0.991832       -26.9891
  35   2.0000      -0.980786       -26.6885
  36   2.0000      -0.917690       -24.9716
  37   2.0000      -0.898379       -24.4461
  38   2.0000      -0.863132       -23.4870
  39   2.0000      -0.837960       -22.8020
  40   2.0000      -0.827253       -22.5107
  41   2.0000      -0.814031       -22.1509
  42   2.0000      -0.759803       -20.6753
  43   2.0000      -0.730970       -19.8907
  44   2.0000      -0.725166       -19.7328
  45   2.0000      -0.694566       -18.9001
  46   2.0000      -0.689015       -18.7490
  47   2.0000      -0.680672       -18.5220
  48   2.0000      -0.668768       -18.1981
  49   2.0000      -0.658706       -17.9243
  50   2.0000      -0.645717       -17.5709
  51   2.0000      -0.644151       -17.5282
  52   2.0000      -0.636083       -17.3087
  53   2.0000      -0.611146       -16.6301
  54   2.0000      -0.602586       -16.3972
  55   2.0000      -0.598800       -16.2942
  56   2.0000      -0.593641       -16.1538
  57   2.0000      -0.575845       -15.6695
  58   2.0000      -0.574602       -15.6357
  59   2.0000      -0.571318       -15.5463
  60   2.0000      -0.562082       -15.2950
  61   2.0000      -0.541476       -14.7343
  62   2.0000      -0.536166       -14.5898
  63   2.0000      -0.529228       -14.4010
  64   2.0000      -0.523471       -14.2444
  65   2.0000      -0.514737       -14.0067
  66   2.0000      -0.498110       -13.5543
  67   2.0000      -0.493880       -13.4392
  68   2.0000      -0.474407       -12.9093
  69   2.0000      -0.462018       -12.5721
  70   2.0000      -0.452658       -12.3174
  71   2.0000      -0.442043       -12.0286
  72   2.0000      -0.350984        -9.5508
  73   2.0000      -0.343529        -9.3479
  74   2.0000      -0.327320        -8.9068
  75   2.0000      -0.312279        -8.4975
  76   2.0000      -0.307684        -8.3725
  77   0.0000       0.069532         1.8921
  78   0.0000       0.110393         3.0040
  79   0.0000       0.121531         3.3070
  80   0.0000       0.126455         3.4410
  81   0.0000       0.130877         3.5613

MULLIKEN ATOMIC CHARGES
-----------------------
   0 C :   -0.291830
   1 C :    0.022756
   2 O :   -0.319511
   3 C :    0.455750
   4 O :   -0.453919
   5 C :   -0.192905
   6 C :    0.108799
   7 C :   -0.265309
   8 N :   -0.069787
   9 C :    0.181422
  10 S :   -0.441634
  11 N :   -0.184511
  12 C :   -0.000084
  13 C :    0.098887
  14 C :   -0.225712
  15 C :   -0.123785
  16 C :   -0.276212
  17 C :    0.298542
  18 O :   -0.349642
  19 C :   -0.271132
  20 H :    0.102746
  21 H :    0.094243
  22 H :    0.099782
  23 H :    0.122457
  24 H :    0.103048
  25 H :    0.137510
  26 H :    0.135383
  27 H :    0.091869
  28 H :    0.192967
  29 H :    0.191438
  30 H :    0.157837
  31 H :    0.162755
  32 H :    0.158185
  33 H :    0.136101
  34 H :    0.244852
  35 H :    0.168644
Sum of atomic charges:   -0.0000000

LOEWDIN ATOMIC CHARGES
----------------------
   0 C :    0.101020
   1 C :   -0.023013
   2 O :    0.354804
   3 C :   -0.472658
   4 O :    0.093419
   5 C :   -0.099615
   6 C :   -0.050059
   7 C :    0.137626
   8 N :    0.416501
   9 C :   -0.451014
  10 S :   -0.056682
  11 N :    0.402628
  12 C :   -0.058003
  13 C :   -0.035415
  14 C :    0.024419
  15 C :    0.039321
  16 C :   -0.014108
  17 C :   -0.151367
  18 O :    0.380602
  19 C :    0.018121
  20 H :   -0.025763
  21 H :   -0.024303
  22 H :   -0.029213
  23 H :   -0.024417
  24 H :   -0.025820
  25 H :   -0.004988
  26 H :   -0.004649
  27 H :   -0.024622
  28 H :   -0.043662
  29 H :   -0.057138
  30 H :   -0.016638
  31 H :   -0.036568
  32 H :   -0.026432
  33 H :   -0.037304
  34 H :   -0.148444
  35 H :   -0.026564

  Mayer bond orders larger than 0.100000
B(  0-C ,  1-C ) :   0.9589 B(  0-C , 20-H ) :   0.9762 B(  0-C , 21-H ) :   0.9778
B(  0-C , 22-H ) :   0.9787 B(  1-C ,  2-O ) :   0.8952 B(  1-C , 23-H ) :   0.9772
B(  1-C , 24-H ) :   0.9849 B(  2-O ,  3-C ) :   1.2029 B(  3-C ,  4-O ) :   1.9476
B(  3-C ,  5-C ) :   1.0688 B(  5-C ,  6-C ) :   1.6233 B(  5-C , 12-C ) :   0.9611
B(  6-C ,  7-C ) :   0.9713 B(  6-C ,  8-N ) :   1.1820 B(  7-C , 25-H ) :   0.9617
B(  7-C , 26-H ) :   0.9577 B(  7-C , 27-H ) :   0.9876 B(  8-N ,  9-C ) :   1.1889
B(  8-N , 28-H ) :   0.9518 B(  9-C , 10-S ) :   1.5859 B(  9-C , 11-N ) :   1.3170
B( 11-N , 12-C ) :   0.9778 B( 11-N , 29-H ) :   0.9550 B( 12-C , 13-C ) :   0.9543
B( 12-C , 30-H ) :   0.9988 B( 13-C , 14-C ) :   1.3701 B( 13-C , 19-C ) :   1.3668
B( 14-C , 15-C ) :   1.3917 B( 14-C , 31-H ) :   0.9648 B( 15-C , 16-C ) :   1.3810
B( 15-C , 32-H ) :   0.9705 B( 16-C , 17-C ) :   1.3406 B( 16-C , 33-H ) :   0.9792
B( 17-C , 18-O ) :   1.1117 B( 17-C , 19-C ) :   1.3620 B( 18-O , 34-H ) :   0.9754
B( 19-C , 35-H ) :   0.9591

MP2 TOTAL ENERGY:    -1274.317773414 Eh
FINAL SINGLE POINT ENERGY     -1274.317773414487

DIPOLE MOMENT
-------------
                                X             Y             Z
Electronic contribution:     -8.63941       8.43307      11.26748
Nuclear contribution   :      8.87618     -10.26474     -12.33479
                        -----------------------------------------
Total Dipole Moment    :      0.23677      -1.83167      -1.06731
                        -----------------------------------------
Magnitude (a.u.)       :      2.13312
Magnitude (Debye)      :      5.42197

Rotational constants in cm-1:     0.010224     0.009084     0.005835
Rotational constants in MHz :   306.520031   272.340793   174.916581

                             ****ORCA TERMINATED NORMALLY****
TOTAL RUN TIME: 0 days 2 hours 3 minutes 35 seconds 337 msec
