                         Program Version 5.0.0 -  RELEASE  -
|  1> ! RI-MP2 cc-pVTZ cc-pVTZ/c TightSCF KeepDens NoKeepInts
|  2>
|  3> %pointcharges "srfp_output"
|  4>
|  5> *xyz  0  1
|  6>     C     7.3924037    9.7197021    6.6428453
|  7>     C     7.0139244    8.3373151    7.2833935
|  8>     O     5.6872587    8.4242511    7.8376043
|  9>     C     5.4768998    9.3222357    8.8784883
| 10>     O     6.3773591    9.6959976    9.6315637
| 11>     C     4.0771528    9.4402870    9.2386889
| 12>     C     3.0148730    9.3285676    8.3619575
| 13>     C     3.1238201    9.1751963    6.8691716
| 14>     N     1.8163570    9.4761216    8.8797270
| 15>     C     1.4948382    9.8174626   10.1376334
| 16>     S    -0.0507742   10.1195802   10.7169363
| 17>     N     2.5621507   10.1678728   10.9419040
| 18>     C     3.8546547    9.5999974   10.7181838
| 19>     C     4.0569974    8.3468925   11.5594288
| 20>     C     3.2520864    7.2216731   11.3415428
| 21>     C     3.4555622    6.0103471   12.1371550
| 22>     C     4.6071679    5.8500275   13.0076670
| 23>     C     5.3831021    7.0242709   13.2737634
| 24>     O     6.5129859    6.9175313   13.9655946
| 25>     C     5.2263942    8.1865645   12.4215679
| 26>     H     7.7493605   10.4388412    7.3902516
| 27>     H     6.5617470   10.1480699    6.0686498
| 28>     H     8.2689959    9.6502175    5.9871414
| 29>     H     6.9747711    7.5944305    6.4773040
| 30>     H     7.7506815    7.9177116    7.9793184
| 31>     H     2.1969147    9.6488501    6.5232113
| 32>     H     3.2856199    8.1552798    6.4993327
| 33>     H     3.8922527    9.8043394    6.4034656
| 34>     H     1.0412939    9.1514976    8.3141628
| 35>     H     2.3112797   10.4541380   11.8805639
| 36>     H     4.5469937   10.4162433   10.9581817
| 37>     H     2.3968655    7.2688087   10.6738816
| 38>     H     2.7364396    5.2192333   11.9463735
| 39>     H     4.7290884    4.9077324   13.5336055
| 40>     H     7.0272797    7.7295093   13.8141925
| 41>     H     5.9909745    8.9464296   12.5535757
| 42> *
| 43>
| 44>                          ****END OF INPUT****

CARTESIAN COORDINATES (ANGSTROEM)
---------------------------------
  C      7.392404    9.719702    6.642845
  C      7.013924    8.337315    7.283393
  O      5.687259    8.424251    7.837604
  C      5.476900    9.322236    8.878488
  O      6.377359    9.695998    9.631564
  C      4.077153    9.440287    9.238689
  C      3.014873    9.328568    8.361958
  C      3.123820    9.175196    6.869172
  N      1.816357    9.476122    8.879727
  C      1.494838    9.817463   10.137633
  S     -0.050774   10.119580   10.716936
  N      2.562151   10.167873   10.941904
  C      3.854655    9.599997   10.718184
  C      4.056997    8.346892   11.559429
  C      3.252086    7.221673   11.341543
  C      3.455562    6.010347   12.137155
  C      4.607168    5.850028   13.007667
  C      5.383102    7.024271   13.273763
  O      6.512986    6.917531   13.965595
  C      5.226394    8.186564   12.421568
  H      7.749360   10.438841    7.390252
  H      6.561747   10.148070    6.068650
  H      8.268996    9.650217    5.987141
  H      6.974771    7.594430    6.477304
  H      7.750681    7.917712    7.979318
  H      2.196915    9.648850    6.523211
  H      3.285620    8.155280    6.499333
  H      3.892253    9.804339    6.403466
  H      1.041294    9.151498    8.314163
  H      2.311280   10.454138   11.880564
  H      4.546994   10.416243   10.958182
  H      2.396866    7.268809   10.673882
  H      2.736440    5.219233   11.946373
  H      4.729088    4.907732   13.533606
  H      7.027280    7.729509   13.814193
  H      5.990975    8.946430   12.553576

 Total Charge           Charge          ....    0
 Multiplicity           Mult            ....    1
 Number of Electrons    NEL             ....  154
 Basis Dimension        Dim             ....  828

ORBITAL ENERGIES
----------------

  NO   OCC          E(Eh)            E(eV)
   0   2.0000     -95.401034     -2595.9941
   1   2.0000     -24.065386      -654.8524
   2   2.0000     -24.058053      -654.6529
   3   2.0000     -24.027852      -653.8311
   4   2.0000     -19.107056      -519.9294
   5   2.0000     -19.081268      -519.2277
   6   2.0000     -14.880008      -404.9056
   7   2.0000     -14.870043      -404.6344
   8   2.0000     -14.796785      -402.6410
   9   2.0000     -14.786271      -402.3549
  10   2.0000     -14.761195      -401.6725
  11   2.0000     -14.748023      -401.3141
  12   2.0000     -14.731898      -400.8753
  13   2.0000     -14.727009      -400.7423
  14   2.0000     -14.715072      -400.4175
  15   2.0000     -14.713422      -400.3726
  16   2.0000     -14.711983      -400.3334
  17   2.0000     -14.708153      -400.2292
  18   2.0000     -14.704514      -400.1302
  19   2.0000     -14.674710      -399.3192
  20   2.0000     -12.406898      -337.6089
  21   2.0000     -10.088846      -274.5315
  22   2.0000     -10.086932      -274.4794
  23   2.0000     -10.086530      -274.4684
  24   2.0000      -4.913905      -133.7141
  25   2.0000      -4.889290      -133.0443
  26   2.0000      -4.844590      -131.8280
  27   2.0000      -4.827244      -131.3560
  28   2.0000      -4.729922      -128.7077
  29   2.0000      -4.611684      -125.4903
  30   2.0000      -4.582884      -124.7066
  31   2.0000      -4.500463      -122.4638
  32   2.0000      -4.493775      -122.2818
  33   2.0000      -4.465913      -121.5237
  34   2.0000      -4.457656      -121.2990
  35   2.0000      -4.456384      -121.2644
  36   2.0000      -4.389542      -119.4455
  37   2.0000      -4.360222      -118.6477
  38   2.0000      -4.341688      -118.1433
  39   2.0000      -4.314737      -117.4100
  40   2.0000      -4.291540      -116.7787
  41   2.0000      -4.273022      -116.2748
  42   2.0000      -4.220185      -114.8371
  43   2.0000      -4.205442      -114.4359
  44   2.0000      -4.196373      -114.1891
  45   2.0000      -4.172773      -113.5469
  46   2.0000      -4.153227      -113.0150
  47   2.0000      -4.145286      -112.7990
  48   2.0000      -4.132613      -112.4541
  49   2.0000      -4.127548      -112.3163
  50   2.0000      -4.118569      -112.0720
  51   2.0000      -4.108462      -111.7969
  52   2.0000      -4.105192      -111.7079
  53   2.0000      -4.073275      -110.8394
  54   2.0000      -4.067772      -110.6897
  55   2.0000      -4.064627      -110.6041
  56   2.0000      -4.051936      -110.2588
  57   2.0000      -4.039655      -109.9246
  58   2.0000      -4.038876      -109.9034
  59   2.0000      -4.032914      -109.7412
  60   2.0000      -4.015156      -109.2580
  61   2.0000      -4.012538      -109.1867
  62   2.0000      -3.997891      -108.7881
  63   2.0000      -3.988844      -108.5420
  64   2.0000      -3.979832      -108.2967
  65   2.0000      -3.973379      -108.1211
  66   2.0000      -3.966493      -107.9338
  67   2.0000      -3.956226      -107.6544
  68   2.0000      -3.942749      -107.2876
  69   2.0000      -3.927260      -106.8662
  70   2.0000      -3.925279      -106.8123
  71   2.0000      -3.920701      -106.6877
  72   2.0000      -3.847947      -104.7080
  73   2.0000      -3.841458      -104.5314
  74   2.0000      -3.808262      -103.6281
  75   2.0000      -3.795527      -103.2815
  76   2.0000      -3.776588      -102.7662
  77   0.0000      -3.414971       -92.9261
  78   0.0000      -3.359891       -91.4273
  79   0.0000      -3.342734       -90.9604
  80   0.0000      -3.326115       -90.5082
  81   0.0000      -3.311018       -90.0974

MULLIKEN ATOMIC CHARGES
-----------------------
   0 C :   -0.326782
   1 C :    0.012184
   2 O :   -0.338780
   3 C :    0.484238
   4 O :   -0.593405
   5 C :   -0.117442
   6 C :    0.146919
   7 C :   -0.309723
   8 N :   -0.056636
   9 C :    0.331186
  10 S :   -0.756590
  11 N :   -0.174298
  12 C :    0.024413
  13 C :    0.083975
  14 C :   -0.302752
  15 C :   -0.173047
  16 C :   -0.289561
  17 C :    0.320496
  18 O :   -0.422014
  19 C :   -0.301347
  20 H :    0.109354
  21 H :    0.115206
  22 H :    0.117575
  23 H :    0.124851
  24 H :    0.120775
  25 H :    0.117924
  26 H :    0.152623
  27 H :    0.140339
  28 H :    0.258526
  29 H :    0.239461
  30 H :    0.165062
  31 H :    0.189318
  32 H :    0.205832
  33 H :    0.192730
  34 H :    0.326160
  35 H :    0.183229
Sum of atomic charges:    0.0000000

LOEWDIN ATOMIC CHARGES
----------------------
   0 C :    0.107753
   1 C :   -0.014453
   2 O :    0.299866
   3 C :   -0.370841
   4 O :   -0.001228
   5 C :   -0.095341
   6 C :   -0.072874
   7 C :    0.145927
   8 N :    0.458577
   9 C :   -0.384147
  10 S :   -0.252056
  11 N :    0.425519
  12 C :   -0.089568
  13 C :   -0.040672
  14 C :    0.003137
  15 C :    0.053127
  16 C :    0.008407
  17 C :   -0.210845
  18 O :    0.379786
  19 C :    0.027781
  20 H :   -0.031135
  21 H :   -0.026397
  22 H :   -0.021243
  23 H :   -0.019823
  24 H :   -0.028198
  25 H :   -0.007851
  26 H :   -0.001821
  27 H :   -0.000873
  28 H :    0.003294
  29 H :   -0.032282
  30 H :    0.000090
  31 H :   -0.028364
  32 H :   -0.020869
  33 H :   -0.027662
  34 H :   -0.103647
  35 H :   -0.031074

  Mayer bond orders larger than 0.100000
B(  0-C ,  1-C ) :   0.9565 B(  0-C , 20-H ) :   0.9741 B(  0-C , 21-H ) :   0.9719
B(  0-C , 22-H ) :   0.9755 B(  1-C ,  2-O ) :   0.8944 B(  1-C , 23-H ) :   0.9815
B(  1-C , 24-H ) :   0.9781 B(  2-O ,  3-C ) :   1.1960 B(  3-C ,  4-O ) :   1.8396
B(  3-C ,  5-C ) :   1.0878 B(  5-C ,  6-C ) :   1.5745 B(  5-C , 12-C ) :   0.9734
B(  6-C ,  7-C ) :   0.9478 B(  6-C ,  8-N ) :   1.2052 B(  7-C , 25-H ) :   0.9824
B(  7-C , 26-H ) :   0.9578 B(  7-C , 27-H ) :   0.9644 B(  8-N ,  9-C ) :   1.3014
B(  8-N , 28-H ) :   0.9183 B(  9-C , 10-S ) :   1.2099 B(  9-C , 11-N ) :   1.3811
B( 11-N , 12-C ) :   0.9582 B( 11-N , 29-H ) :   0.9327 B( 12-C , 13-C ) :   0.9653
B( 12-C , 30-H ) :   0.9824 B( 13-C , 14-C ) :   1.3633 B( 13-C , 19-C ) :   1.2839
B( 14-C , 15-C ) :   1.3725 B( 14-C , 31-H ) :   0.9613 B( 15-C , 16-C ) :   1.3893
B( 15-C , 32-H ) :   0.9570 B( 16-C , 17-C ) :   1.2998 B( 16-C , 33-H ) :   0.9549
B( 17-C , 18-O ) :   1.1283 B( 17-C , 19-C ) :   1.3828 B( 18-O , 34-H ) :   0.9139
B( 19-C , 35-H ) :   0.9582

MP2 TOTAL ENERGY:    -1274.434846360 Eh
FINAL SINGLE POINT ENERGY     -1274.434846359732

DIPOLE MOMENT
-------------
                                X             Y             Z
Electronic contribution:    -10.72847       1.40681      12.00645
Nuclear contribution   :     12.64669      -1.94754     -14.91056
                        -----------------------------------------
Total Dipole Moment    :      1.91822      -0.54073      -2.90411
                        -----------------------------------------
Magnitude (a.u.)       :      3.52219
Magnitude (Debye)      :      8.95268

Rotational constants in cm-1:     0.009919     0.009658     0.005611
Rotational constants in MHz :   297.356638   289.547805   168.226747

                             ****ORCA TERMINATED NORMALLY****
TOTAL RUN TIME: 0 days 1 hours 52 minutes 27 seconds 269 msec
