                         Program Version 5.0.0 -  RELEASE  -
|  1> ! RI-MP2 cc-pVTZ cc-pVTZ/c TightSCF KeepDens NoKeepInts
|  2>
|  3> *xyz  0  1
|  4>     C     7.3924037    9.7197021    6.6428453
|  5>     C     7.0139244    8.3373151    7.2833935
|  6>     O     5.6872587    8.4242511    7.8376043
|  7>     C     5.4768998    9.3222357    8.8784883
|  8>     O     6.3773591    9.6959976    9.6315637
|  9>     C     4.0771528    9.4402870    9.2386889
| 10>     C     3.0148730    9.3285676    8.3619575
| 11>     C     3.1238201    9.1751963    6.8691716
| 12>     N     1.8163570    9.4761216    8.8797270
| 13>     C     1.4948382    9.8174626   10.1376334
| 14>     S    -0.0507742   10.1195802   10.7169363
| 15>     N     2.5621507   10.1678728   10.9419040
| 16>     C     3.8546547    9.5999974   10.7181838
| 17>     C     4.0569974    8.3468925   11.5594288
| 18>     C     3.2520864    7.2216731   11.3415428
| 19>     C     3.4555622    6.0103471   12.1371550
| 20>     C     4.6071679    5.8500275   13.0076670
| 21>     C     5.3831021    7.0242709   13.2737634
| 22>     O     6.5129859    6.9175313   13.9655946
| 23>     C     5.2263942    8.1865645   12.4215679
| 24>     H     7.7493605   10.4388412    7.3902516
| 25>     H     6.5617470   10.1480699    6.0686498
| 26>     H     8.2689959    9.6502175    5.9871414
| 27>     H     6.9747711    7.5944305    6.4773040
| 28>     H     7.7506815    7.9177116    7.9793184
| 29>     H     2.1969147    9.6488501    6.5232113
| 30>     H     3.2856199    8.1552798    6.4993327
| 31>     H     3.8922527    9.8043394    6.4034656
| 32>     H     1.0412939    9.1514976    8.3141628
| 33>     H     2.3112797   10.4541380   11.8805639
| 34>     H     4.5469937   10.4162433   10.9581817
| 35>     H     2.3968655    7.2688087   10.6738816
| 36>     H     2.7364396    5.2192333   11.9463735
| 37>     H     4.7290884    4.9077324   13.5336055
| 38>     H     7.0272797    7.7295093   13.8141925
| 39>     H     5.9909745    8.9464296   12.5535757
| 40> *
| 41>
| 42>                          ****END OF INPUT****

CARTESIAN COORDINATES (ANGSTROEM)
---------------------------------
  C      7.392404    9.719702    6.642845
  C      7.013924    8.337315    7.283393
  O      5.687259    8.424251    7.837604
  C      5.476900    9.322236    8.878488
  O      6.377359    9.695998    9.631564
  C      4.077153    9.440287    9.238689
  C      3.014873    9.328568    8.361958
  C      3.123820    9.175196    6.869172
  N      1.816357    9.476122    8.879727
  C      1.494838    9.817463   10.137633
  S     -0.050774   10.119580   10.716936
  N      2.562151   10.167873   10.941904
  C      3.854655    9.599997   10.718184
  C      4.056997    8.346892   11.559429
  C      3.252086    7.221673   11.341543
  C      3.455562    6.010347   12.137155
  C      4.607168    5.850028   13.007667
  C      5.383102    7.024271   13.273763
  O      6.512986    6.917531   13.965595
  C      5.226394    8.186564   12.421568
  H      7.749360   10.438841    7.390252
  H      6.561747   10.148070    6.068650
  H      8.268996    9.650217    5.987141
  H      6.974771    7.594430    6.477304
  H      7.750681    7.917712    7.979318
  H      2.196915    9.648850    6.523211
  H      3.285620    8.155280    6.499333
  H      3.892253    9.804339    6.403466
  H      1.041294    9.151498    8.314163
  H      2.311280   10.454138   11.880564
  H      4.546994   10.416243   10.958182
  H      2.396866    7.268809   10.673882
  H      2.736440    5.219233   11.946373
  H      4.729088    4.907732   13.533606
  H      7.027280    7.729509   13.814193
  H      5.990975    8.946430   12.553576

 Total Charge           Charge          ....    0
 Multiplicity           Mult            ....    1
 Number of Electrons    NEL             ....  154
 Basis Dimension        Dim             ....  828

ORBITAL ENERGIES
----------------

  NO   OCC          E(Eh)            E(eV)
   0   2.0000     -91.896074     -2500.6193
   1   2.0000     -20.602890      -560.6331
   2   2.0000     -20.594494      -560.4047
   3   2.0000     -20.545579      -559.0736
   4   2.0000     -15.641208      -425.6189
   5   2.0000     -15.602488      -424.5653
   6   2.0000     -11.390834      -309.9603
   7   2.0000     -11.388290      -309.8911
   8   2.0000     -11.334260      -308.4209
   9   2.0000     -11.317597      -307.9675
  10   2.0000     -11.301405      -307.5269
  11   2.0000     -11.292280      -307.2786
  12   2.0000     -11.265869      -306.5599
  13   2.0000     -11.262938      -306.4801
  14   2.0000     -11.260376      -306.4104
  15   2.0000     -11.248725      -306.0934
  16   2.0000     -11.247135      -306.0501
  17   2.0000     -11.247117      -306.0496
  18   2.0000     -11.240335      -305.8651
  19   2.0000     -11.233176      -305.6703
  20   2.0000      -8.900054      -242.1828
  21   2.0000      -6.581482      -179.0912
  22   2.0000      -6.579622      -179.0406
  23   2.0000      -6.578990      -179.0234
  24   2.0000      -1.443186       -39.2711
  25   2.0000      -1.424545       -38.7638
  26   2.0000      -1.375276       -37.4232
  27   2.0000      -1.351653       -36.7803
  28   2.0000      -1.258930       -34.2572
  29   2.0000      -1.141333       -31.0572
  30   2.0000      -1.114329       -30.3224
  31   2.0000      -1.037504       -28.2319
  32   2.0000      -1.033102       -28.1121
  33   2.0000      -1.002117       -27.2690
  34   2.0000      -0.990077       -26.9414
  35   2.0000      -0.987747       -26.8780
  36   2.0000      -0.923294       -25.1241
  37   2.0000      -0.898664       -24.4539
  38   2.0000      -0.871727       -23.7209
  39   2.0000      -0.849461       -23.1150
  40   2.0000      -0.830331       -22.5945
  41   2.0000      -0.805491       -21.9185
  42   2.0000      -0.750924       -20.4337
  43   2.0000      -0.737575       -20.0704
  44   2.0000      -0.731517       -19.9056
  45   2.0000      -0.704826       -19.1793
  46   2.0000      -0.686016       -18.6674
  47   2.0000      -0.676360       -18.4047
  48   2.0000      -0.666847       -18.1458
  49   2.0000      -0.662376       -18.0242
  50   2.0000      -0.652162       -17.7462
  51   2.0000      -0.643206       -17.5025
  52   2.0000      -0.641395       -17.4532
  53   2.0000      -0.616570       -16.7777
  54   2.0000      -0.605947       -16.4887
  55   2.0000      -0.598569       -16.2879
  56   2.0000      -0.590773       -16.0757
  57   2.0000      -0.583822       -15.8866
  58   2.0000      -0.577159       -15.7053
  59   2.0000      -0.565964       -15.4007
  60   2.0000      -0.556989       -15.1564
  61   2.0000      -0.542900       -14.7731
  62   2.0000      -0.531488       -14.4625
  63   2.0000      -0.526566       -14.3286
  64   2.0000      -0.520357       -14.1596
  65   2.0000      -0.509983       -13.8773
  66   2.0000      -0.498597       -13.5675
  67   2.0000      -0.496197       -13.5022
  68   2.0000      -0.472477       -12.8568
  69   2.0000      -0.459428       -12.5017
  70   2.0000      -0.455271       -12.3885
  71   2.0000      -0.450652       -12.2629
  72   2.0000      -0.351916        -9.5761
  73   2.0000      -0.336115        -9.1462
  74   2.0000      -0.329753        -8.9730
  75   2.0000      -0.316293        -8.6068
  76   2.0000      -0.305359        -8.3092
  77   0.0000       0.062229         1.6933
  78   0.0000       0.108835         2.9616
  79   0.0000       0.116122         3.1598
  80   0.0000       0.123897         3.3714
  81   0.0000       0.137604         3.7444

MULLIKEN ATOMIC CHARGES
-----------------------
   0 C :   -0.329922
   1 C :    0.027428
   2 O :   -0.352160
   3 C :    0.420105
   4 O :   -0.448760
   5 C :   -0.104038
   6 C :    0.112407
   7 C :   -0.317789
   8 N :   -0.039448
   9 C :    0.153550
  10 S :   -0.429992
  11 N :   -0.160122
  12 C :    0.007187
  13 C :    0.062846
  14 C :   -0.242258
  15 C :   -0.144846
  16 C :   -0.224583
  17 C :    0.277472
  18 O :   -0.335841
  19 C :   -0.250189
  20 H :    0.123479
  21 H :    0.096774
  22 H :    0.105207
  23 H :    0.103837
  24 H :    0.114686
  25 H :    0.099990
  26 H :    0.143456
  27 H :    0.129538
  28 H :    0.188553
  29 H :    0.179381
  30 H :    0.159072
  31 H :    0.156708
  32 H :    0.163094
  33 H :    0.170229
  34 H :    0.246798
  35 H :    0.138152
Sum of atomic charges:    0.0000000

LOEWDIN ATOMIC CHARGES
----------------------
   0 C :    0.103623
   1 C :   -0.017887
   2 O :    0.288131
   3 C :   -0.394535
   4 O :    0.088759
   5 C :   -0.096064
   6 C :   -0.101310
   7 C :    0.132380
   8 N :    0.435792
   9 C :   -0.429230
  10 S :   -0.047777
  11 N :    0.400841
  12 C :   -0.096725
  13 C :   -0.037047
  14 C :    0.013126
  15 C :    0.065213
  16 C :    0.024259
  17 C :   -0.205988
  18 O :    0.409589
  19 C :    0.025950
  20 H :   -0.026083
  21 H :   -0.033030
  22 H :   -0.027659
  23 H :   -0.028520
  24 H :   -0.028276
  25 H :   -0.018791
  26 H :   -0.008190
  27 H :   -0.006362
  28 H :   -0.033770
  29 H :   -0.060981
  30 H :   -0.003061
  31 H :   -0.036384
  32 H :   -0.032255
  33 H :   -0.033577
  34 H :   -0.142088
  35 H :   -0.042073

  Mayer bond orders larger than 0.100000
B(  0-C ,  1-C ) :   0.9608 B(  0-C , 20-H ) :   0.9718 B(  0-C , 21-H ) :   0.9766
B(  0-C , 22-H ) :   0.9781 B(  1-C ,  2-O ) :   0.9193 B(  1-C , 23-H ) :   0.9849
B(  1-C , 24-H ) :   0.9788 B(  2-O ,  3-C ) :   1.1450 B(  3-C ,  4-O ) :   1.9387
B(  3-C ,  5-C ) :   1.0409 B(  5-C ,  6-C ) :   1.6009 B(  5-C , 12-C ) :   0.9719
B(  6-C ,  7-C ) :   0.9433 B(  6-C ,  8-N ) :   1.2061 B(  7-C , 25-H ) :   0.9882
B(  7-C , 26-H ) :   0.9624 B(  7-C , 27-H ) :   0.9700 B(  8-N ,  9-C ) :   1.1894
B(  8-N , 28-H ) :   0.9538 B(  9-C , 10-S ) :   1.6096 B(  9-C , 11-N ) :   1.2806
B( 11-N , 12-C ) :   0.9675 B( 11-N , 29-H ) :   0.9596 B( 12-C , 13-C ) :   0.9592
B( 12-C , 30-H ) :   0.9858 B( 13-C , 14-C ) :   1.4061 B( 13-C , 19-C ) :   1.3082
B( 14-C , 15-C ) :   1.3707 B( 14-C , 31-H ) :   0.9662 B( 15-C , 16-C ) :   1.3997
B( 15-C , 32-H ) :   0.9720 B( 16-C , 17-C ) :   1.3240 B( 16-C , 33-H ) :   0.9635
B( 17-C , 18-O ) :   1.1316 B( 17-C , 19-C ) :   1.3754 B( 18-O , 34-H ) :   0.9692
B( 19-C , 35-H ) :   0.9709

MP2 TOTAL ENERGY:    -1274.297131029 Eh
FINAL SINGLE POINT ENERGY     -1274.297131028910

DIPOLE MOMENT
-------------
                                X             Y             Z
Electronic contribution:    -11.48332       1.61483      13.08029
Nuclear contribution   :     12.64669      -1.94754     -14.91056
                        -----------------------------------------
Total Dipole Moment    :      1.16337      -0.33271      -1.83027
                        -----------------------------------------
Magnitude (a.u.)       :      2.19408
Magnitude (Debye)      :      5.57692

Rotational constants in cm-1:     0.009919     0.009658     0.005611
Rotational constants in MHz :   297.356638   289.547805   168.226747

                             ****ORCA TERMINATED NORMALLY****
TOTAL RUN TIME: 0 days 1 hours 48 minutes 25 seconds 211 msec
